<?xml version="1.0"?>
<VTKFile type="UnstructuredGrid"  version="0.1"  >
<UnstructuredGrid>
<Piece  NumberOfPoints="441" NumberOfCells="800">
<Points>
<DataArray  type="Float64"  NumberOfComponents="3"  format="ascii">0 0 0  0.05 0 0  0.1 0 0  0.15 0 0  0.2 0 0  0.25 0 0  0.3 0 0  0.35 0 0  0.4 0 0  0.45 0 0  0.5 0 0  0.55 0 0  0.6 0 0  0.65 0 0  0.7 0 0  0.75 0 0  0.8 0 0  0.85 0 0  0.9 0 0  0.95 0 0  1 0 0  0 0.05 0  0.05 0.05 0  0.1 0.05 0  0.15 0.05 0  0.2 0.05 0  0.25 0.05 0  0.3 0.05 0  0.35 0.05 0  0.4 0.05 0  0.45 0.05 0  0.5 0.05 0  0.55 0.05 0  0.6 0.05 0  0.65 0.05 0  0.7 0.05 0  0.75 0.05 0  0.8 0.05 0  0.85 0.05 0  0.9 0.05 0  0.95 0.05 0  1 0.05 0  0 0.1 0  0.05 0.1 0  0.1 0.1 0  0.15 0.1 0  0.2 0.1 0  0.25 0.1 0  0.3 0.1 0  0.35 0.1 0  0.4 0.1 0  0.45 0.1 0  0.5 0.1 0  0.55 0.1 0  0.6 0.1 0  0.65 0.1 0  0.7 0.1 0  0.75 0.1 0  0.8 0.1 0  0.85 0.1 0  0.9 0.1 0  0.95 0.1 0  1 0.1 0  0 0.15 0  0.05 0.15 0  0.1 0.15 0  0.15 0.15 0  0.2 0.15 0  0.25 0.15 0  0.3 0.15 0  0.35 0.15 0  0.4 0.15 0  0.45 0.15 0  0.5 0.15 0  0.55 0.15 0  0.6 0.15 0  0.65 0.15 0  0.7 0.15 0  0.75 0.15 0  0.8 0.15 0  0.85 0.15 0  0.9 0.15 0  0.95 0.15 0  1 0.15 0  0 0.2 0  0.05 0.2 0  0.1 0.2 0  0.15 0.2 0  0.2 0.2 0  0.25 0.2 0  0.3 0.2 0  0.35 0.2 0  0.4 0.2 0  0.45 0.2 0  0.5 0.2 0  0.55 0.2 0  0.6 0.2 0  0.65 0.2 0  0.7 0.2 0  0.75 0.2 0  0.8 0.2 0  0.85 0.2 0  0.9 0.2 0  0.95 0.2 0  1 0.2 0  0 0.25 0  0.05 0.25 0  0.1 0.25 0  0.15 0.25 0  0.2 0.25 0  0.25 0.25 0  0.3 0.25 0  0.35 0.25 0  0.4 0.25 0  0.45 0.25 0  0.5 0.25 0  0.55 0.25 0  0.6 0.25 0  0.65 0.25 0  0.7 0.25 0  0.75 0.25 0  0.8 0.25 0  0.85 0.25 0  0.9 0.25 0  0.95 0.25 0  1 0.25 0  0 0.3 0  0.05 0.3 0  0.1 0.3 0  0.15 0.3 0  0.2 0.3 0  0.25 0.3 0  0.3 0.3 0  0.35 0.3 0  0.4 0.3 0  0.45 0.3 0  0.5 0.3 0  0.55 0.3 0  0.6 0.3 0  0.65 0.3 0  0.7 0.3 0  0.75 0.3 0  0.8 0.3 0  0.85 0.3 0  0.9 0.3 0  0.95 0.3 0  1 0.3 0  0 0.35 0  0.05 0.35 0  0.1 0.35 0  0.15 0.35 0  0.2 0.35 0  0.25 0.35 0  0.3 0.35 0  0.35 0.35 0  0.4 0.35 0  0.45 0.35 0  0.5 0.35 0  0.55 0.35 0  0.6 0.35 0  0.65 0.35 0  0.7 0.35 0  0.75 0.35 0  0.8 0.35 0  0.85 0.35 0  0.9 0.35 0  0.95 0.35 0  1 0.35 0  0 0.4 0  0.05 0.4 0  0.1 0.4 0  0.15 0.4 0  0.2 0.4 0  0.25 0.4 0  0.3 0.4 0  0.35 0.4 0  0.4 0.4 0  0.45 0.4 0  0.5 0.4 0  0.55 0.4 0  0.6 0.4 0  0.65 0.4 0  0.7 0.4 0  0.75 0.4 0  0.8 0.4 0  0.85 0.4 0  0.9 0.4 0  0.95 0.4 0  1 0.4 0  0 0.45 0  0.05 0.45 0  0.1 0.45 0  0.15 0.45 0  0.2 0.45 0  0.25 0.45 0  0.3 0.45 0  0.35 0.45 0  0.4 0.45 0  0.45 0.45 0  0.5 0.45 0  0.55 0.45 0  0.6 0.45 0  0.65 0.45 0  0.7 0.45 0  0.75 0.45 0  0.8 0.45 0  0.85 0.45 0  0.9 0.45 0  0.95 0.45 0  1 0.45 0  0 0.5 0  0.05 0.5 0  0.1 0.5 0  0.15 0.5 0  0.2 0.5 0  0.25 0.5 0  0.3 0.5 0  0.35 0.5 0  0.4 0.5 0  0.45 0.5 0  0.5 0.5 0  0.55 0.5 0  0.6 0.5 0  0.65 0.5 0  0.7 0.5 0  0.75 0.5 0  0.8 0.5 0  0.85 0.5 0  0.9 0.5 0  0.95 0.5 0  1 0.5 0  0 0.55 0  0.05 0.55 0  0.1 0.55 0  0.15 0.55 0  0.2 0.55 0  0.25 0.55 0  0.3 0.55 0  0.35 0.55 0  0.4 0.55 0  0.45 0.55 0  0.5 0.55 0  0.55 0.55 0  0.6 0.55 0  0.65 0.55 0  0.7 0.55 0  0.75 0.55 0  0.8 0.55 0  0.85 0.55 0  0.9 0.55 0  0.95 0.55 0  1 0.55 0  0 0.6 0  0.05 0.6 0  0.1 0.6 0  0.15 0.6 0  0.2 0.6 0  0.25 0.6 0  0.3 0.6 0  0.35 0.6 0  0.4 0.6 0  0.45 0.6 0  0.5 0.6 0  0.55 0.6 0  0.6 0.6 0  0.65 0.6 0  0.7 0.6 0  0.75 0.6 0  0.8 0.6 0  0.85 0.6 0  0.9 0.6 0  0.95 0.6 0  1 0.6 0  0 0.65 0  0.05 0.65 0  0.1 0.65 0  0.15 0.65 0  0.2 0.65 0  0.25 0.65 0  0.3 0.65 0  0.35 0.65 0  0.4 0.65 0  0.45 0.65 0  0.5 0.65 0  0.55 0.65 0  0.6 0.65 0  0.65 0.65 0  0.7 0.65 0  0.75 0.65 0  0.8 0.65 0  0.85 0.65 0  0.9 0.65 0  0.95 0.65 0  1 0.65 0  0 0.7 0  0.05 0.7 0  0.1 0.7 0  0.15 0.7 0  0.2 0.7 0  0.25 0.7 0  0.3 0.7 0  0.35 0.7 0  0.4 0.7 0  0.45 0.7 0  0.5 0.7 0  0.55 0.7 0  0.6 0.7 0  0.65 0.7 0  0.7 0.7 0  0.75 0.7 0  0.8 0.7 0  0.85 0.7 0  0.9 0.7 0  0.95 0.7 0  1 0.7 0  0 0.75 0  0.05 0.75 0  0.1 0.75 0  0.15 0.75 0  0.2 0.75 0  0.25 0.75 0  0.3 0.75 0  0.35 0.75 0  0.4 0.75 0  0.45 0.75 0  0.5 0.75 0  0.55 0.75 0  0.6 0.75 0  0.65 0.75 0  0.7 0.75 0  0.75 0.75 0  0.8 0.75 0  0.85 0.75 0  0.9 0.75 0  0.95 0.75 0  1 0.75 0  0 0.8 0  0.05 0.8 0  0.1 0.8 0  0.15 0.8 0  0.2 0.8 0  0.25 0.8 0  0.3 0.8 0  0.35 0.8 0  0.4 0.8 0  0.45 0.8 0  0.5 0.8 0  0.55 0.8 0  0.6 0.8 0  0.65 0.8 0  0.7 0.8 0  0.75 0.8 0  0.8 0.8 0  0.85 0.8 0  0.9 0.8 0  0.95 0.8 0  1 0.8 0  0 0.85 0  0.05 0.85 0  0.1 0.85 0  0.15 0.85 0  0.2 0.85 0  0.25 0.85 0  0.3 0.85 0  0.35 0.85 0  0.4 0.85 0  0.45 0.85 0  0.5 0.85 0  0.55 0.85 0  0.6 0.85 0  0.65 0.85 0  0.7 0.85 0  0.75 0.85 0  0.8 0.85 0  0.85 0.85 0  0.9 0.85 0  0.95 0.85 0  1 0.85 0  0 0.9 0  0.05 0.9 0  0.1 0.9 0  0.15 0.9 0  0.2 0.9 0  0.25 0.9 0  0.3 0.9 0  0.35 0.9 0  0.4 0.9 0  0.45 0.9 0  0.5 0.9 0  0.55 0.9 0  0.6 0.9 0  0.65 0.9 0  0.7 0.9 0  0.75 0.9 0  0.8 0.9 0  0.85 0.9 0  0.9 0.9 0  0.95 0.9 0  1 0.9 0  0 0.95 0  0.05 0.95 0  0.1 0.95 0  0.15 0.95 0  0.2 0.95 0  0.25 0.95 0  0.3 0.95 0  0.35 0.95 0  0.4 0.95 0  0.45 0.95 0  0.5 0.95 0  0.55 0.95 0  0.6 0.95 0  0.65 0.95 0  0.7 0.95 0  0.75 0.95 0  0.8 0.95 0  0.85 0.95 0  0.9 0.95 0  0.95 0.95 0  1 0.95 0  0 1 0  0.05 1 0  0.1 1 0  0.15 1 0  0.2 1 0  0.25 1 0  0.3 1 0  0.35 1 0  0.4 1 0  0.45 1 0  0.5 1 0  0.55 1 0  0.6 1 0  0.65 1 0  0.7 1 0  0.75 1 0  0.8 1 0  0.85 1 0  0.9 1 0  0.95 1 0  1 1 0  </DataArray>
</Points>
<Cells>
[...]
<PointData  Scalars="f_6847"> 
<DataArray  type="Float64"  Name="f_6847"  format="ascii">1.3631242474001571e+01  5.2546356485970147e+00  1.0806688075111506e+01  5.0372814460813409e+00  8.0930090572992235e+00  6.1986516990552412e+00  5.3754830576316479e+00  7.7853221662194558e+00  3.2166032031477183e+00  9.0103177989278684e+00  2.1796990175902815e+00  9.3508427674026002e+00  2.5650567809009877e+00  8.6913000904333142e+00  4.2935235772517926e+00  7.3625005559605370e+00  6.9477494480074959e+00  6.0634802918037272e+00  9.9851026109880507e+00  5.7867893459962438e+00  1.3372169197218181e+01  5.2533378667827755e+00  1.5181688345695035e+01  2.2609180643651250e+01  2.6059653696768034e+01  2.9924073811145231e+01  3.2145640423122387e+01  3.3944422077100889e+01  3.5796813864875652e+01  3.5985980440080461e+01  3.7572417790756134e+01  3.6572225972999647e+01  3.7631815225408779e+01  3.5872584006890676e+01  3.5954926032502257e+01  3.3756331684768924e+01  3.2349309579613987e+01  2.9726578352490954e+01  2.6244815330126901e+01  2.2490856117861505e+01  1.5389030286932462e+01  5.7880833996536376e+00  1.0809037412878375e+01  2.2609625006653509e+01  3.3388731686810374e+01  4.1668166910861643e+01  4.8398075881959500e+01  5.3515542736884022e+01  5.7459872834832247e+01  6.0471683277732993e+01  6.2358237337980427e+01  6.3721305924188613e+01  6.3905136728552442e+01  6.3731757748385192e+01  6.2338699505771828e+01  6.0499615781409489e+01  5.7427706518513453e+01  5.3551923721517163e+01  4.8364537918202792e+01  4.1698404911712792e+01  3.3344522006295136e+01  2.2490408185362806e+01  9.9827561725135023e+00  5.0340865368931356e+00  2.6059107160096030e+01  4.1668059015158960e+01  5.3826363929297280e+01  6.3484719004151771e+01  7.1058826169255610e+01  7.6908118470894507e+01  8.1272115216434997e+01  8.4254303997594533e+01  8.6049768589424815e+01  8.6595598182975934e+01  8.6051713074186637e+01  8.4251163586484651e+01  8.1277428320200116e+01  7.6903227259903105e+01  7.1066372660390513e+01  6.3481438437069080e+01  5.3839888076362072e+01  4.1698513613802788e+01  2.6245363041745893e+01  6.0666731479131979e+00  8.0967376651883693e+00  2.9924721022336858e+01  4.8398185726454038e+01  6.3484741267876522e+01  7.5655909619973414e+01  8.5327286785155209e+01  9.2842074005424479e+01  9.8454812189779730e+01  1.0233758219376875e+02  1.0462837198997227e+02  1.0537628571615571e+02  1.0462883637404093e+02  1.0233729747262774e+02  9.8456157645918481e+01  9.2841809601019548e+01  8.5329254550389933e+01  7.5655246292007675e+01  6.3481416035879860e+01  4.8364427769662967e+01  2.9725930172055911e+01  6.9440219187773637e+00  6.1947486340097431e+00  3.2144963714978815e+01  5.3515424975076755e+01  7.1058806302745310e+01  8.5327282670444362e+01  9.6752809909094978e+01  1.0567862024879653e+02  1.1236807461767802e+02  1.1701347820268509e+02  1.1975051334774301e+02  1.2065300576362094e+02  1.1975070924205390e+02  1.1701366635465546e+02  1.1236868710891460e+02  1.0567913404888753e+02  9.6754054187278726e+01  8.5329258665288719e+01  7.1066392504347959e+01  5.3552041461878531e+01  3.2349986214067918e+01  7.3664036650124816e+00  5.3791838054152450e+00  3.3945064436451894e+01  5.7459984254125722e+01  7.6908137903682828e+01  9.2842077261270717e+01  1.0567862093729723e+02  1.1575217749153467e+02  1.2332611031934510e+02  1.2859851429298277e+02  1.3170799872950147e+02  1.3273532544796925e+02  1.3170812808852565e+02  1.2859873996238119e+02  1.2332650808476905e+02  1.1575263427909289e+02  1.0567913336394250e+02  9.2841806364221185e+01  7.6903207910572547e+01  5.7427595434987424e+01  3.3755690204714213e+01  4.2898216848316926e+00  7.7821808710332068e+00  3.5796268083617434e+01  6.0471588437640527e+01  8.1272098753794637e+01  9.8454809308488180e+01  1.1236807413808071e+02  1.2332611021513360e+02  1.3158650431618150e+02  1.3734735606437096e+02  1.4074856227740702e+02  1.4187310070484963e+02  1.4074865671327299e+02  1.3734754065289715e+02  1.3158679634250481e+02  1.2332650818639438e+02  1.1236868757817609e+02  9.8456160483901499e+01  8.1277444604993605e+01  6.0499709973052951e+01  3.5955470139515867e+01  8.6944435271859426e+00  3.2188818847014371e+00  3.5986377005624902e+01  6.2358306348788780e+01  8.4254316009067367e+01  1.0233758427978121e+02  1.1701347856894714e+02  1.2859851435289596e+02  1.3734735607786459e+02  1.4345682160953760e+02  1.4706680995279152e+02  1.4826088714819002e+02  1.4706687261598211e+02  1.4345694561245995e+02  1.3734754063973969e+02  1.2859873990428719e+02  1.1701366599923443e+02  1.0233729544011742e+02  8.4251151808663366e+01  6.2338631372128361e+01  3.5872189722664089e+01  2.5627751702326624e+00  9.0091216413345290e+00  3.7572208715486099e+01  6.3721269381488099e+01  8.6049762202707569e+01  1.0462837087264448e+02  1.1975051315269066e+02  1.3170799869456008e+02  1.4074856227171296e+02  1.4706680995136327e+02  1.5080205533363554e+02  1.5203786537762824e+02  1.5080208676564405e+02  1.4706687261713793e+02  1.4074865671800958e+02  1.3170812811975406e+02  1.1975070942166941e+02  1.0462883742453917e+02  8.6051719181474681e+01  6.3731793257133610e+01  3.7632021621704347e+01  9.3520423601842850e+00  2.1796972130493009e+00  3.6572227379290240e+01  6.3905137269962431e+01  8.6595598327861211e+01  1.0537628574965369e+02  1.2065300577055942e+02  1.3273532544917848e+02  1.4187310070497406e+02  1.4826088714816464e+02  1.5203786537762494e+02  1.5328757582954483e+02  1.5203786537762497e+02  1.4826088714816473e+02  1.4187310070497418e+02  1.3273532544917862e+02  1.2065300577055953e+02  1.0537628574965372e+02  8.6595598327861211e+01  6.3905137269962417e+01  3.6572227379290268e+01  2.1796972130493359e+00  9.3520423601843579e+00  3.7632021621704347e+01  6.3731793257133610e+01  8.6051719181474681e+01  1.0462883742453914e+02  1.1975070942166930e+02  1.3170812811975392e+02  1.4074865671800944e+02  1.4706687261713790e+02  1.5080208676564405e+02  1.5203786537762826e+02  1.5080205533363559e+02  1.4706680995136338e+02  1.4074856227171310e+02  1.3170799869456019e+02  1.1975051315269077e+02  1.0462837087264454e+02  8.6049762202707541e+01  6.3721269381488035e+01  3.7572208715486106e+01  9.0091216413345379e+00  2.5627751702325581e+00  3.5872189722664046e+01  6.2338631372128368e+01  8.4251151808663394e+01  1.0233729544011743e+02  1.1701366599923439e+02  1.2859873990428707e+02  1.3734754063973958e+02  1.4345694561245986e+02  1.4706687261598205e+02  1.4826088714819008e+02  1.4706680995279157e+02  1.4345682160953771e+02  1.3734735607786476e+02  1.2859851435289613e+02  1.1701347856894721e+02  1.0233758427978120e+02  8.4254316009067324e+01  6.2358306348788716e+01  3.5986377005624888e+01  3.2188818847013887e+00  8.6944435271860652e+00  3.5955470139515867e+01  6.0499709973052973e+01  8.1277444604993619e+01  9.8456160483901527e+01  1.1236868757817612e+02  1.2332650818639432e+02  1.3158679634250475e+02  1.3734754065289710e+02  1.4074865671327302e+02  1.4187310070484963e+02  1.4074856227740705e+02  1.3734735606437098e+02  1.3158650431618159e+02  1.2332611021513365e+02  1.1236807413808071e+02  9.8454809308488180e+01  8.1272098753794566e+01  6.0471588437640492e+01  3.5796268083617448e+01  7.7821808710333054e+00  4.2898216848315673e+00  3.3755690204714149e+01  5.7427595434987403e+01  7.6903207910572519e+01  9.2841806364221185e+01  1.0567913336394244e+02  1.1575263427909279e+02  1.2332650808476893e+02  1.2859873996238107e+02  1.3170812808852557e+02  1.3273532544796919e+02  1.3170799872950138e+02  1.2859851429298277e+02  1.2332611031934512e+02  1.1575217749153471e+02  1.0567862093729724e+02  9.2842077261270688e+01  7.6908137903682771e+01  5.7459984254125665e+01  3.3945064436451879e+01  5.3791838054151109e+00  7.3664036650126077e+00  3.2349986214067897e+01  5.3552041461878488e+01  7.1066392504347903e+01  8.5329258665288648e+01  9.6754054187278612e+01  1.0567913404888733e+02  1.1236868710891441e+02  1.1701366635465524e+02  1.1975070924205372e+02  1.2065300576362080e+02  1.1975051334774292e+02  1.1701347820268512e+02  1.1236807461767798e+02  1.0567862024879649e+02  9.6752809909094935e+01  8.5327282670444291e+01  7.1058806302745268e+01  5.3515424975076741e+01  3.2144963714978843e+01  6.1947486340098985e+00  6.9440219187772456e+00  2.9725930172055850e+01  4.8364427769662939e+01  6.3481416035879818e+01  7.5655246292007632e+01  8.5329254550389862e+01  9.2841809601019420e+01  9.8456157645918282e+01  1.0233729747262755e+02  1.0462883637404074e+02  1.0537628571615554e+02  1.0462837198997217e+02  1.0233758219376865e+02  9.8454812189779631e+01  9.2842074005424365e+01  8.5327286785155152e+01  7.5655909619973357e+01  6.3484741267876494e+01  4.8398185726454031e+01  2.9924721022336843e+01  8.0967376651882041e+00  6.0666731479133036e+00  2.6245363041745893e+01  4.1698513613802795e+01  5.3839888076362072e+01  6.3481438437069059e+01  7.1066372660390442e+01  7.6903227259903019e+01  8.1277428320199988e+01  8.4251163586484566e+01  8.6051713074186551e+01  8.6595598182975820e+01  8.6049768589424701e+01  8.4254303997594462e+01  8.1272115216434912e+01  7.6908118470894379e+01  7.1058826169255525e+01  6.3484719004151721e+01  5.3826363929297273e+01  4.1668059015158946e+01  2.6059107160096069e+01  5.0340865368932892e+00  9.9827561725134117e+00  2.2490408185362785e+01  3.3344522006295129e+01  4.1698404911712785e+01  4.8364537918202785e+01  5.3551923721517127e+01  5.7427706518513403e+01  6.0499615781409389e+01  6.2338699505771757e+01  6.3731757748385135e+01  6.3905136728552371e+01  6.3721305924188549e+01  6.2358237337980370e+01  6.0471683277732957e+01  5.7459872834832169e+01  5.3515542736883965e+01  4.8398075881959478e+01  4.1668166910861636e+01  3.3388731686810367e+01  2.2609625006653506e+01  1.0809037412878240e+01  5.7880833996537051e+00  1.5389030286932490e+01  2.2490856117861512e+01  2.6244815330126926e+01  2.9726578352490989e+01  3.2349309579614001e+01  3.3756331684768945e+01  3.5954926032502229e+01  3.5872584006890690e+01  3.7631815225408765e+01  3.6572225972999668e+01  3.7572417790756141e+01  3.5985980440080461e+01  3.5796813864875674e+01  3.3944422077100860e+01  3.2145640423122401e+01  2.9924073811145206e+01  2.6059653696768084e+01  2.2609180643651246e+01  1.5181688345695099e+01  5.2533378667828732e+00  1.3372169197218140e+01  5.7867893459962749e+00  9.9851026109880188e+00  6.0634802918037494e+00  6.9477494480074951e+00  7.3625005559605068e+00  4.2935235772518672e+00  8.6913000904332094e+00  2.5650567809011053e+00  9.3508427674024990e+00  2.1796990175903530e+00  9.0103177989278382e+00  3.2166032031476934e+00  7.7853221662195384e+00  5.3754830576315360e+00  6.1986516990553842e+00  8.0930090572990796e+00  5.0372814460814839e+00  1.0806688075111358e+01  5.2546356485971231e+00  1.3631242474001484e+01  </DataArray> 
</PointData> 
</Piece>
</UnstructuredGrid>
</VTKFile>