<?xml version="1.0"?>
<VTKFile type="UnstructuredGrid"  version="0.1"  >
<UnstructuredGrid>
<Piece  NumberOfPoints="441" NumberOfCells="800">
<Points>
<DataArray  type="Float64"  NumberOfComponents="3"  format="ascii">0 0 0  0.05 0 0  0.1 0 0  0.15 0 0  0.2 0 0  0.25 0 0  0.3 0 0  0.35 0 0  0.4 0 0  0.45 0 0  0.5 0 0  0.55 0 0  0.6 0 0  0.65 0 0  0.7 0 0  0.75 0 0  0.8 0 0  0.85 0 0  0.9 0 0  0.95 0 0  1 0 0  0 0.05 0  0.05 0.05 0  0.1 0.05 0  0.15 0.05 0  0.2 0.05 0  0.25 0.05 0  0.3 0.05 0  0.35 0.05 0  0.4 0.05 0  0.45 0.05 0  0.5 0.05 0  0.55 0.05 0  0.6 0.05 0  0.65 0.05 0  0.7 0.05 0  0.75 0.05 0  0.8 0.05 0  0.85 0.05 0  0.9 0.05 0  0.95 0.05 0  1 0.05 0  0 0.1 0  0.05 0.1 0  0.1 0.1 0  0.15 0.1 0  0.2 0.1 0  0.25 0.1 0  0.3 0.1 0  0.35 0.1 0  0.4 0.1 0  0.45 0.1 0  0.5 0.1 0  0.55 0.1 0  0.6 0.1 0  0.65 0.1 0  0.7 0.1 0  0.75 0.1 0  0.8 0.1 0  0.85 0.1 0  0.9 0.1 0  0.95 0.1 0  1 0.1 0  0 0.15 0  0.05 0.15 0  0.1 0.15 0  0.15 0.15 0  0.2 0.15 0  0.25 0.15 0  0.3 0.15 0  0.35 0.15 0  0.4 0.15 0  0.45 0.15 0  0.5 0.15 0  0.55 0.15 0  0.6 0.15 0  0.65 0.15 0  0.7 0.15 0  0.75 0.15 0  0.8 0.15 0  0.85 0.15 0  0.9 0.15 0  0.95 0.15 0  1 0.15 0  0 0.2 0  0.05 0.2 0  0.1 0.2 0  0.15 0.2 0  0.2 0.2 0  0.25 0.2 0  0.3 0.2 0  0.35 0.2 0  0.4 0.2 0  0.45 0.2 0  0.5 0.2 0  0.55 0.2 0  0.6 0.2 0  0.65 0.2 0  0.7 0.2 0  0.75 0.2 0  0.8 0.2 0  0.85 0.2 0  0.9 0.2 0  0.95 0.2 0  1 0.2 0  0 0.25 0  0.05 0.25 0  0.1 0.25 0  0.15 0.25 0  0.2 0.25 0  0.25 0.25 0  0.3 0.25 0  0.35 0.25 0  0.4 0.25 0  0.45 0.25 0  0.5 0.25 0  0.55 0.25 0  0.6 0.25 0  0.65 0.25 0  0.7 0.25 0  0.75 0.25 0  0.8 0.25 0  0.85 0.25 0  0.9 0.25 0  0.95 0.25 0  1 0.25 0  0 0.3 0  0.05 0.3 0  0.1 0.3 0  0.15 0.3 0  0.2 0.3 0  0.25 0.3 0  0.3 0.3 0  0.35 0.3 0  0.4 0.3 0  0.45 0.3 0  0.5 0.3 0  0.55 0.3 0  0.6 0.3 0  0.65 0.3 0  0.7 0.3 0  0.75 0.3 0  0.8 0.3 0  0.85 0.3 0  0.9 0.3 0  0.95 0.3 0  1 0.3 0  0 0.35 0  0.05 0.35 0  0.1 0.35 0  0.15 0.35 0  0.2 0.35 0  0.25 0.35 0  0.3 0.35 0  0.35 0.35 0  0.4 0.35 0  0.45 0.35 0  0.5 0.35 0  0.55 0.35 0  0.6 0.35 0  0.65 0.35 0  0.7 0.35 0  0.75 0.35 0  0.8 0.35 0  0.85 0.35 0  0.9 0.35 0  0.95 0.35 0  1 0.35 0  0 0.4 0  0.05 0.4 0  0.1 0.4 0  0.15 0.4 0  0.2 0.4 0  0.25 0.4 0  0.3 0.4 0  0.35 0.4 0  0.4 0.4 0  0.45 0.4 0  0.5 0.4 0  0.55 0.4 0  0.6 0.4 0  0.65 0.4 0  0.7 0.4 0  0.75 0.4 0  0.8 0.4 0  0.85 0.4 0  0.9 0.4 0  0.95 0.4 0  1 0.4 0  0 0.45 0  0.05 0.45 0  0.1 0.45 0  0.15 0.45 0  0.2 0.45 0  0.25 0.45 0  0.3 0.45 0  0.35 0.45 0  0.4 0.45 0  0.45 0.45 0  0.5 0.45 0  0.55 0.45 0  0.6 0.45 0  0.65 0.45 0  0.7 0.45 0  0.75 0.45 0  0.8 0.45 0  0.85 0.45 0  0.9 0.45 0  0.95 0.45 0  1 0.45 0  0 0.5 0  0.05 0.5 0  0.1 0.5 0  0.15 0.5 0  0.2 0.5 0  0.25 0.5 0  0.3 0.5 0  0.35 0.5 0  0.4 0.5 0  0.45 0.5 0  0.5 0.5 0  0.55 0.5 0  0.6 0.5 0  0.65 0.5 0  0.7 0.5 0  0.75 0.5 0  0.8 0.5 0  0.85 0.5 0  0.9 0.5 0  0.95 0.5 0  1 0.5 0  0 0.55 0  0.05 0.55 0  0.1 0.55 0  0.15 0.55 0  0.2 0.55 0  0.25 0.55 0  0.3 0.55 0  0.35 0.55 0  0.4 0.55 0  0.45 0.55 0  0.5 0.55 0  0.55 0.55 0  0.6 0.55 0  0.65 0.55 0  0.7 0.55 0  0.75 0.55 0  0.8 0.55 0  0.85 0.55 0  0.9 0.55 0  0.95 0.55 0  1 0.55 0  0 0.6 0  0.05 0.6 0  0.1 0.6 0  0.15 0.6 0  0.2 0.6 0  0.25 0.6 0  0.3 0.6 0  0.35 0.6 0  0.4 0.6 0  0.45 0.6 0  0.5 0.6 0  0.55 0.6 0  0.6 0.6 0  0.65 0.6 0  0.7 0.6 0  0.75 0.6 0  0.8 0.6 0  0.85 0.6 0  0.9 0.6 0  0.95 0.6 0  1 0.6 0  0 0.65 0  0.05 0.65 0  0.1 0.65 0  0.15 0.65 0  0.2 0.65 0  0.25 0.65 0  0.3 0.65 0  0.35 0.65 0  0.4 0.65 0  0.45 0.65 0  0.5 0.65 0  0.55 0.65 0  0.6 0.65 0  0.65 0.65 0  0.7 0.65 0  0.75 0.65 0  0.8 0.65 0  0.85 0.65 0  0.9 0.65 0  0.95 0.65 0  1 0.65 0  0 0.7 0  0.05 0.7 0  0.1 0.7 0  0.15 0.7 0  0.2 0.7 0  0.25 0.7 0  0.3 0.7 0  0.35 0.7 0  0.4 0.7 0  0.45 0.7 0  0.5 0.7 0  0.55 0.7 0  0.6 0.7 0  0.65 0.7 0  0.7 0.7 0  0.75 0.7 0  0.8 0.7 0  0.85 0.7 0  0.9 0.7 0  0.95 0.7 0  1 0.7 0  0 0.75 0  0.05 0.75 0  0.1 0.75 0  0.15 0.75 0  0.2 0.75 0  0.25 0.75 0  0.3 0.75 0  0.35 0.75 0  0.4 0.75 0  0.45 0.75 0  0.5 0.75 0  0.55 0.75 0  0.6 0.75 0  0.65 0.75 0  0.7 0.75 0  0.75 0.75 0  0.8 0.75 0  0.85 0.75 0  0.9 0.75 0  0.95 0.75 0  1 0.75 0  0 0.8 0  0.05 0.8 0  0.1 0.8 0  0.15 0.8 0  0.2 0.8 0  0.25 0.8 0  0.3 0.8 0  0.35 0.8 0  0.4 0.8 0  0.45 0.8 0  0.5 0.8 0  0.55 0.8 0  0.6 0.8 0  0.65 0.8 0  0.7 0.8 0  0.75 0.8 0  0.8 0.8 0  0.85 0.8 0  0.9 0.8 0  0.95 0.8 0  1 0.8 0  0 0.85 0  0.05 0.85 0  0.1 0.85 0  0.15 0.85 0  0.2 0.85 0  0.25 0.85 0  0.3 0.85 0  0.35 0.85 0  0.4 0.85 0  0.45 0.85 0  0.5 0.85 0  0.55 0.85 0  0.6 0.85 0  0.65 0.85 0  0.7 0.85 0  0.75 0.85 0  0.8 0.85 0  0.85 0.85 0  0.9 0.85 0  0.95 0.85 0  1 0.85 0  0 0.9 0  0.05 0.9 0  0.1 0.9 0  0.15 0.9 0  0.2 0.9 0  0.25 0.9 0  0.3 0.9 0  0.35 0.9 0  0.4 0.9 0  0.45 0.9 0  0.5 0.9 0  0.55 0.9 0  0.6 0.9 0  0.65 0.9 0  0.7 0.9 0  0.75 0.9 0  0.8 0.9 0  0.85 0.9 0  0.9 0.9 0  0.95 0.9 0  1 0.9 0  0 0.95 0  0.05 0.95 0  0.1 0.95 0  0.15 0.95 0  0.2 0.95 0  0.25 0.95 0  0.3 0.95 0  0.35 0.95 0  0.4 0.95 0  0.45 0.95 0  0.5 0.95 0  0.55 0.95 0  0.6 0.95 0  0.65 0.95 0  0.7 0.95 0  0.75 0.95 0  0.8 0.95 0  0.85 0.95 0  0.9 0.95 0  0.95 0.95 0  1 0.95 0  0 1 0  0.05 1 0  0.1 1 0  0.15 1 0  0.2 1 0  0.25 1 0  0.3 1 0  0.35 1 0  0.4 1 0  0.45 1 0  0.5 1 0  0.55 1 0  0.6 1 0  0.65 1 0  0.7 1 0  0.75 1 0  0.8 1 0  0.85 1 0  0.9 1 0  0.95 1 0  1 1 0  </DataArray>
</Points>
<Cells>
[...]
<PointData  Scalars="f_6847"> 
<DataArray  type="Float64"  Name="f_6847"  format="ascii">1.3629263143269307e+01  5.2563345380593480e+00  1.0808681152855938e+01  5.0392505064889122e+00  8.0985124287235930e+00  6.2009428252002845e+00  5.3834496921879653e+00  7.7883161574051520e+00  3.2255336845096596e+00  9.0144227112283399e+00  2.1880348152436895e+00  9.3561979412181469e+00  2.5715651116208780e+00  8.6975754551146292e+00  4.2975477894476315e+00  7.3688724953294109e+00  6.9492581582608635e+00  6.0687997985867730e+00  9.9845399076422119e+00  5.7898709234620584e+00  1.3370108680949123e+01  5.2563341935971337e+00  1.5176044398506269e+01  2.2595950596288350e+01  2.6039461176989494e+01  2.9898133970002156e+01  3.2113489535940033e+01  3.3908438218831797e+01  3.5756093956668302e+01  3.5943470831969066e+01  3.7527356117023210e+01  3.6527352099281920e+01  3.7587036677825836e+01  3.5829782379536141e+01  3.5914960234056181e+01  3.3719892639966396e+01  3.2318127679990859e+01  2.9700216625917072e+01  2.6225460528248163e+01  2.2477366813599058e+01  1.5383558415795711e+01  5.7898712669346537e+00  1.0808681776426152e+01  2.2595950714232881e+01  3.3360405702630722e+01  4.1625658579673086e+01  4.8342549135704992e+01  5.3448215189364369e+01  5.7382728775297210e+01  6.0386364688873506e+01  6.2267239430559165e+01  6.3626610566050090e+01  6.3809417509239665e+01  6.3637217927819798e+01  6.2247857764206664e+01  6.0414723741271168e+01  5.7350849872355489e+01  5.3485177750608855e+01  4.8309368150319152e+01  4.1656458190863269e+01  3.3316551722228496e+01  2.2477366694707136e+01  9.9845392848416736e+00  5.0392496584838851e+00  2.6039461031925633e+01  4.1625658551034988e+01  5.3762577549119527e+01  6.3401250634417252e+01  7.0957780353948138e+01  7.6792112985308592e+01  8.1144037806142492e+01  8.4117456461861750e+01  8.5907556952621164e+01  8.6451666044398365e+01  8.5909658555530314e+01  8.4114595872885587e+01  8.1149785182554695e+01  7.6787716497856422e+01  7.0965926056359805e+01  6.3398542173940506e+01  5.3776660381514688e+01  4.1656458219715383e+01  2.6225460673623871e+01  6.0688006460466752e+00  8.0985134183849894e+00  2.9898134141787413e+01  4.8342549164860323e+01  6.3401250640326559e+01  7.5546662567976313e+01  8.5195052140745119e+01  9.2690216497726340e+01  9.8287171027205190e+01  1.0215841123086234e+02  1.0444219302165079e+02  1.0518781279172289e+02  1.0444282351337769e+02  1.0215844444397756e+02  9.8288975108286508e+01  9.2690510031353668e+01  8.5197651438153514e+01  7.5546641193248561e+01  6.3398542167994698e+01  4.8309368121083125e+01  2.9700216453874617e+01  6.9492571688860032e+00  6.2009417892337950e+00  3.2113489356325545e+01  5.3448215158107530e+01  7.0957780348675072e+01  8.5195052139652972e+01  9.6592740993793100e+01  1.0549477555723283e+02  1.1216510926693583e+02  1.1679652982999909e+02  1.1952506592194432e+02  1.2042475802582440e+02  1.1952542508252230e+02  1.1679703376187165e+02  1.1216617154092582e+02  1.0549584097229720e+02  9.6594600466533649e+01  8.5197651439245689e+01  7.0965926061626874e+01  5.3485177781859967e+01  3.2318127859585758e+01  7.3688735313073082e+00  5.3834506744546395e+00  3.3908438389329255e+01  5.7382728804870503e+01  7.6792112990466478e+01  9.2690216498590488e+01  1.0549477555741555e+02  1.1554100599901035e+02  1.2309295776518665e+02  1.2834927830185612e+02  1.3144897953500484e+02  1.3247306810905064e+02  1.3144925625303466e+02  1.2834978934692302e+02  1.2309376076713694e+02  1.1554195994459930e+02  1.0549584097211535e+02  9.2690510030494508e+01  7.6787716492720676e+01  5.7350849842871277e+01  3.3719892469702366e+01  4.2975468068774383e+00  7.7883153236305374e+00  3.5756093811804931e+01  6.0386364663700661e+01  8.1144037801772868e+01  9.8287171026440390e+01  1.1216510926680851e+02  1.2309295776515900e+02  1.3132906260754510e+02  1.3707213431133397e+02  1.4046251618715948e+02  1.4158345713210082e+02  1.4046273100671229e+02  1.3707255199570724e+02  1.3132968519679656e+02  1.2309376076716390e+02  1.1216617154105029e+02  9.8288975109039683e+01  8.1149785186877054e+01  6.0414723766271820e+01  3.5914960378475108e+01  8.6975762894574018e+00  3.2255342893260606e+00  3.5943470937226998e+01  6.2267239448876246e+01  8.4117456465049841e+01  1.0215841123141598e+02  1.1679652983009628e+02  1.2834927830187198e+02  1.3707213431133749e+02  1.4316257017393673e+02  1.4676096377331427e+02  1.4795117235905920e+02  1.4676111141087554e+02  1.4316285866575834e+02  1.3707255199570380e+02  1.2834978934690764e+02  1.1679703376177726e+02  1.0215844444343800e+02  8.4114595869759498e+01  6.2247857746122349e+01  3.5829782274883755e+01  2.5715645060272578e+00  9.0144223937396042e+00  3.7527356061529630e+01  6.3626610556350727e+01  8.5907556950925922e+01  1.0444219302135417e+02  1.1952506592189248e+02  1.3144897953499552e+02  1.4046251618715795e+02  1.4676096377331388e+02  1.5048413514745840e+02  1.5171590139454671e+02  1.5048421048479003e+02  1.4676111141087586e+02  1.4046273100671371e+02  1.3144925625304310e+02  1.1952542508256995e+02  1.0444282351365642e+02  8.5909658557151360e+01  6.3637217937244650e+01  3.7587036732608318e+01  9.3561982596184983e+00  2.1880348147647348e+00  3.6527352099655161e+01  6.3809417509383330e+01  8.6451666044436791e+01  1.0518781279173174e+02  1.2042475802582622e+02  1.3247306810905093e+02  1.4158345713210082e+02  1.4795117235905920e+02  1.5171590139454671e+02  1.5296149410830927e+02  1.5171590139454671e+02  1.4795117235905926e+02  1.4158345713210090e+02  1.3247306810905104e+02  1.2042475802582632e+02  1.0518781279173174e+02  8.6451666044436791e+01  6.3809417509383330e+01  3.6527352099655204e+01  2.1880348147648063e+00  9.3561982596186475e+00  3.7587036732608311e+01  6.3637217937244621e+01  8.5909658557151317e+01  1.0444282351365648e+02  1.1952542508256990e+02  1.3144925625304290e+02  1.4046273100671354e+02  1.4676111141087580e+02  1.5048421048479000e+02  1.5171590139454671e+02  1.5048413514745846e+02  1.4676096377331396e+02  1.4046251618715809e+02  1.3144897953499560e+02  1.1952506592189259e+02  1.0444219302135423e+02  8.5907556950925937e+01  6.3626610556350727e+01  3.7527356061529645e+01  9.0144223937396077e+00  2.5715645060270638e+00  3.5829782274883691e+01  6.2247857746122349e+01  8.4114595869759469e+01  1.0215844444343803e+02  1.1679703376177721e+02  1.2834978934690753e+02  1.3707255199570369e+02  1.4316285866575825e+02  1.4676111141087549e+02  1.4795117235905923e+02  1.4676096377331436e+02  1.4316257017393690e+02  1.3707213431133769e+02  1.2834927830187212e+02  1.1679652983009638e+02  1.0215841123141601e+02  8.4117456465049855e+01  6.2267239448876232e+01  3.5943470937226998e+01  3.2255342893259886e+00  8.6975762894576292e+00  3.5914960378475122e+01  6.0414723766271827e+01  8.1149785186877054e+01  9.8288975109039711e+01  1.1216617154105029e+02  1.2309376076716380e+02  1.3132968519679648e+02  1.3707255199570719e+02  1.4046273100671232e+02  1.4158345713210082e+02  1.4046251618715957e+02  1.3707213431133405e+02  1.3132906260754518e+02  1.2309295776515906e+02  1.1216510926680850e+02  9.8287171026440333e+01  8.1144037801772868e+01  6.0386364663700647e+01  3.5756093811804959e+01  7.7883153236306653e+00  4.2975468068771843e+00  3.3719892469702295e+01  5.7350849842871256e+01  7.6787716492720605e+01  9.2690510030494465e+01  1.0549584097211527e+02  1.1554195994459916e+02  1.2309376076713681e+02  1.2834978934692290e+02  1.3144925625303455e+02  1.3247306810905059e+02  1.3144897953500478e+02  1.2834927830185612e+02  1.2309295776518670e+02  1.1554100599901038e+02  1.0549477555741555e+02  9.2690216498590431e+01  7.6792112990466435e+01  5.7382728804870467e+01  3.3908438389329234e+01  5.3834506744544841e+00  7.3688735313075719e+00  3.2318127859585758e+01  5.3485177781859925e+01  7.0965926061626817e+01  8.5197651439245618e+01  9.6594600466533549e+01  1.0549584097229703e+02  1.1216617154092569e+02  1.1679703376187145e+02  1.1952542508252213e+02  1.2042475802582429e+02  1.1952506592194426e+02  1.1679652982999912e+02  1.1216510926693581e+02  1.0549477555723280e+02  9.6592740993793029e+01  8.5195052139652873e+01  7.0957780348675030e+01  5.3448215158107523e+01  3.2113489356325587e+01  6.2009417892339638e+00  6.9492571688857341e+00  2.9700216453874539e+01  4.8309368121083097e+01  6.3398542167994670e+01  7.5546641193248519e+01  8.5197651438153443e+01  9.2690510031353583e+01  9.8288975108286365e+01  1.0215844444397740e+02  1.0444282351337753e+02  1.0518781279172275e+02  1.0444219302165074e+02  1.0215841123086227e+02  9.8287171027205076e+01  9.2690216497726212e+01  8.5195052140745020e+01  7.5546662567976256e+01  6.3401250640326538e+01  4.8342549164860294e+01  2.9898134141787395e+01  8.0985134183848277e+00  6.0688006460469319e+00  2.6225460673623893e+01  4.1656458219715404e+01  5.3776660381514709e+01  6.3398542173940491e+01  7.0965926056359748e+01  7.6787716497856380e+01  8.1149785182554623e+01  8.4114595872885531e+01  8.5909658555530243e+01  8.6451666044398266e+01  8.5907556952621064e+01  8.4117456461861636e+01  8.1144037806142379e+01  7.6792112985308478e+01  7.0957780353948067e+01  6.3401250634417188e+01  5.3762577549119520e+01  4.1625658551034981e+01  2.6039461031925672e+01  5.0392496584840316e+00  9.9845392848414463e+00  2.2477366694707090e+01  3.3316551722228496e+01  4.1656458190863269e+01  4.8309368150319159e+01  5.3485177750608834e+01  5.7350849872355447e+01  6.0414723741271068e+01  6.2247857764206586e+01  6.3637217927819734e+01  6.3809417509239594e+01  6.3626610566050019e+01  6.2267239430559080e+01  6.0386364688873428e+01  5.7382728775297117e+01  5.3448215189364291e+01  4.8342549135704957e+01  4.1625658579673065e+01  3.3360405702630715e+01  2.2595950714232867e+01  1.0808681776426019e+01  5.7898712669348198e+00  1.5383558415795761e+01  2.2477366813599076e+01  2.6225460528248188e+01  2.9700216625917115e+01  3.2318127679990873e+01  3.3719892639966439e+01  3.5914960234056153e+01  3.5829782379536162e+01  3.7587036677825807e+01  3.6527352099281956e+01  3.7527356117023217e+01  3.5943470831969044e+01  3.5756093956668288e+01  3.3908438218831776e+01  3.2113489535940047e+01  2.9898133970002135e+01  2.6039461176989530e+01  2.2595950596288354e+01  1.5176044398506324e+01  5.2563341935972341e+00  1.3370108680949031e+01  5.7898709234621126e+00  9.9845399076421835e+00  6.0687997985867685e+00  6.9492581582608981e+00  7.3688724953293292e+00  4.2975477894477452e+00  8.6975754551144977e+00  2.5715651116210259e+00  9.3561979412180101e+00  2.1880348152437867e+00  9.0144227112282849e+00  3.2255336845096716e+00  7.7883161574052036e+00  5.3834496921878854e+00  6.2009428252003929e+00  8.0985124287234811e+00  5.0392505064890232e+00  1.0808681152855829e+01  5.2563345380594315e+00  1.3629263143269229e+01  </DataArray> 
</PointData> 
</Piece>
</UnstructuredGrid>
</VTKFile>