<?xml version="1.0"?>
<VTKFile type="UnstructuredGrid"  version="0.1"  >
<UnstructuredGrid>
<Piece  NumberOfPoints="441" NumberOfCells="800">
<Points>
<DataArray  type="Float64"  NumberOfComponents="3"  format="ascii">0 0 0  0.05 0 0  0.1 0 0  0.15 0 0  0.2 0 0  0.25 0 0  0.3 0 0  0.35 0 0  0.4 0 0  0.45 0 0  0.5 0 0  0.55 0 0  0.6 0 0  0.65 0 0  0.7 0 0  0.75 0 0  0.8 0 0  0.85 0 0  0.9 0 0  0.95 0 0  1 0 0  0 0.05 0  0.05 0.05 0  0.1 0.05 0  0.15 0.05 0  0.2 0.05 0  0.25 0.05 0  0.3 0.05 0  0.35 0.05 0  0.4 0.05 0  0.45 0.05 0  0.5 0.05 0  0.55 0.05 0  0.6 0.05 0  0.65 0.05 0  0.7 0.05 0  0.75 0.05 0  0.8 0.05 0  0.85 0.05 0  0.9 0.05 0  0.95 0.05 0  1 0.05 0  0 0.1 0  0.05 0.1 0  0.1 0.1 0  0.15 0.1 0  0.2 0.1 0  0.25 0.1 0  0.3 0.1 0  0.35 0.1 0  0.4 0.1 0  0.45 0.1 0  0.5 0.1 0  0.55 0.1 0  0.6 0.1 0  0.65 0.1 0  0.7 0.1 0  0.75 0.1 0  0.8 0.1 0  0.85 0.1 0  0.9 0.1 0  0.95 0.1 0  1 0.1 0  0 0.15 0  0.05 0.15 0  0.1 0.15 0  0.15 0.15 0  0.2 0.15 0  0.25 0.15 0  0.3 0.15 0  0.35 0.15 0  0.4 0.15 0  0.45 0.15 0  0.5 0.15 0  0.55 0.15 0  0.6 0.15 0  0.65 0.15 0  0.7 0.15 0  0.75 0.15 0  0.8 0.15 0  0.85 0.15 0  0.9 0.15 0  0.95 0.15 0  1 0.15 0  0 0.2 0  0.05 0.2 0  0.1 0.2 0  0.15 0.2 0  0.2 0.2 0  0.25 0.2 0  0.3 0.2 0  0.35 0.2 0  0.4 0.2 0  0.45 0.2 0  0.5 0.2 0  0.55 0.2 0  0.6 0.2 0  0.65 0.2 0  0.7 0.2 0  0.75 0.2 0  0.8 0.2 0  0.85 0.2 0  0.9 0.2 0  0.95 0.2 0  1 0.2 0  0 0.25 0  0.05 0.25 0  0.1 0.25 0  0.15 0.25 0  0.2 0.25 0  0.25 0.25 0  0.3 0.25 0  0.35 0.25 0  0.4 0.25 0  0.45 0.25 0  0.5 0.25 0  0.55 0.25 0  0.6 0.25 0  0.65 0.25 0  0.7 0.25 0  0.75 0.25 0  0.8 0.25 0  0.85 0.25 0  0.9 0.25 0  0.95 0.25 0  1 0.25 0  0 0.3 0  0.05 0.3 0  0.1 0.3 0  0.15 0.3 0  0.2 0.3 0  0.25 0.3 0  0.3 0.3 0  0.35 0.3 0  0.4 0.3 0  0.45 0.3 0  0.5 0.3 0  0.55 0.3 0  0.6 0.3 0  0.65 0.3 0  0.7 0.3 0  0.75 0.3 0  0.8 0.3 0  0.85 0.3 0  0.9 0.3 0  0.95 0.3 0  1 0.3 0  0 0.35 0  0.05 0.35 0  0.1 0.35 0  0.15 0.35 0  0.2 0.35 0  0.25 0.35 0  0.3 0.35 0  0.35 0.35 0  0.4 0.35 0  0.45 0.35 0  0.5 0.35 0  0.55 0.35 0  0.6 0.35 0  0.65 0.35 0  0.7 0.35 0  0.75 0.35 0  0.8 0.35 0  0.85 0.35 0  0.9 0.35 0  0.95 0.35 0  1 0.35 0  0 0.4 0  0.05 0.4 0  0.1 0.4 0  0.15 0.4 0  0.2 0.4 0  0.25 0.4 0  0.3 0.4 0  0.35 0.4 0  0.4 0.4 0  0.45 0.4 0  0.5 0.4 0  0.55 0.4 0  0.6 0.4 0  0.65 0.4 0  0.7 0.4 0  0.75 0.4 0  0.8 0.4 0  0.85 0.4 0  0.9 0.4 0  0.95 0.4 0  1 0.4 0  0 0.45 0  0.05 0.45 0  0.1 0.45 0  0.15 0.45 0  0.2 0.45 0  0.25 0.45 0  0.3 0.45 0  0.35 0.45 0  0.4 0.45 0  0.45 0.45 0  0.5 0.45 0  0.55 0.45 0  0.6 0.45 0  0.65 0.45 0  0.7 0.45 0  0.75 0.45 0  0.8 0.45 0  0.85 0.45 0  0.9 0.45 0  0.95 0.45 0  1 0.45 0  0 0.5 0  0.05 0.5 0  0.1 0.5 0  0.15 0.5 0  0.2 0.5 0  0.25 0.5 0  0.3 0.5 0  0.35 0.5 0  0.4 0.5 0  0.45 0.5 0  0.5 0.5 0  0.55 0.5 0  0.6 0.5 0  0.65 0.5 0  0.7 0.5 0  0.75 0.5 0  0.8 0.5 0  0.85 0.5 0  0.9 0.5 0  0.95 0.5 0  1 0.5 0  0 0.55 0  0.05 0.55 0  0.1 0.55 0  0.15 0.55 0  0.2 0.55 0  0.25 0.55 0  0.3 0.55 0  0.35 0.55 0  0.4 0.55 0  0.45 0.55 0  0.5 0.55 0  0.55 0.55 0  0.6 0.55 0  0.65 0.55 0  0.7 0.55 0  0.75 0.55 0  0.8 0.55 0  0.85 0.55 0  0.9 0.55 0  0.95 0.55 0  1 0.55 0  0 0.6 0  0.05 0.6 0  0.1 0.6 0  0.15 0.6 0  0.2 0.6 0  0.25 0.6 0  0.3 0.6 0  0.35 0.6 0  0.4 0.6 0  0.45 0.6 0  0.5 0.6 0  0.55 0.6 0  0.6 0.6 0  0.65 0.6 0  0.7 0.6 0  0.75 0.6 0  0.8 0.6 0  0.85 0.6 0  0.9 0.6 0  0.95 0.6 0  1 0.6 0  0 0.65 0  0.05 0.65 0  0.1 0.65 0  0.15 0.65 0  0.2 0.65 0  0.25 0.65 0  0.3 0.65 0  0.35 0.65 0  0.4 0.65 0  0.45 0.65 0  0.5 0.65 0  0.55 0.65 0  0.6 0.65 0  0.65 0.65 0  0.7 0.65 0  0.75 0.65 0  0.8 0.65 0  0.85 0.65 0  0.9 0.65 0  0.95 0.65 0  1 0.65 0  0 0.7 0  0.05 0.7 0  0.1 0.7 0  0.15 0.7 0  0.2 0.7 0  0.25 0.7 0  0.3 0.7 0  0.35 0.7 0  0.4 0.7 0  0.45 0.7 0  0.5 0.7 0  0.55 0.7 0  0.6 0.7 0  0.65 0.7 0  0.7 0.7 0  0.75 0.7 0  0.8 0.7 0  0.85 0.7 0  0.9 0.7 0  0.95 0.7 0  1 0.7 0  0 0.75 0  0.05 0.75 0  0.1 0.75 0  0.15 0.75 0  0.2 0.75 0  0.25 0.75 0  0.3 0.75 0  0.35 0.75 0  0.4 0.75 0  0.45 0.75 0  0.5 0.75 0  0.55 0.75 0  0.6 0.75 0  0.65 0.75 0  0.7 0.75 0  0.75 0.75 0  0.8 0.75 0  0.85 0.75 0  0.9 0.75 0  0.95 0.75 0  1 0.75 0  0 0.8 0  0.05 0.8 0  0.1 0.8 0  0.15 0.8 0  0.2 0.8 0  0.25 0.8 0  0.3 0.8 0  0.35 0.8 0  0.4 0.8 0  0.45 0.8 0  0.5 0.8 0  0.55 0.8 0  0.6 0.8 0  0.65 0.8 0  0.7 0.8 0  0.75 0.8 0  0.8 0.8 0  0.85 0.8 0  0.9 0.8 0  0.95 0.8 0  1 0.8 0  0 0.85 0  0.05 0.85 0  0.1 0.85 0  0.15 0.85 0  0.2 0.85 0  0.25 0.85 0  0.3 0.85 0  0.35 0.85 0  0.4 0.85 0  0.45 0.85 0  0.5 0.85 0  0.55 0.85 0  0.6 0.85 0  0.65 0.85 0  0.7 0.85 0  0.75 0.85 0  0.8 0.85 0  0.85 0.85 0  0.9 0.85 0  0.95 0.85 0  1 0.85 0  0 0.9 0  0.05 0.9 0  0.1 0.9 0  0.15 0.9 0  0.2 0.9 0  0.25 0.9 0  0.3 0.9 0  0.35 0.9 0  0.4 0.9 0  0.45 0.9 0  0.5 0.9 0  0.55 0.9 0  0.6 0.9 0  0.65 0.9 0  0.7 0.9 0  0.75 0.9 0  0.8 0.9 0  0.85 0.9 0  0.9 0.9 0  0.95 0.9 0  1 0.9 0  0 0.95 0  0.05 0.95 0  0.1 0.95 0  0.15 0.95 0  0.2 0.95 0  0.25 0.95 0  0.3 0.95 0  0.35 0.95 0  0.4 0.95 0  0.45 0.95 0  0.5 0.95 0  0.55 0.95 0  0.6 0.95 0  0.65 0.95 0  0.7 0.95 0  0.75 0.95 0  0.8 0.95 0  0.85 0.95 0  0.9 0.95 0  0.95 0.95 0  1 0.95 0  0 1 0  0.05 1 0  0.1 1 0  0.15 1 0  0.2 1 0  0.25 1 0  0.3 1 0  0.35 1 0  0.4 1 0  0.45 1 0  0.5 1 0  0.55 1 0  0.6 1 0  0.65 1 0  0.7 1 0  0.75 1 0  0.8 1 0  0.85 1 0  0.9 1 0  0.95 1 0  1 1 0  </DataArray>
</Points>
<Cells>
[...]
<PointData  Scalars="f_8047"> 
<DataArray  type="Float64"  Name="f_8047"  format="ascii">1.0361505495751780e+01  9.5273186106233307e+00  1.0081455668041803e+01  9.5064847971677846e+00  9.8124635539868876e+00  9.6231392301065277e+00  9.5427353974584310e+00  9.7821076795121993e+00  9.3281459000824558e+00  9.9048177797139729e+00  9.2247874145272863e+00  9.9390331275720332e+00  9.2626467097407641e+00  9.8731339656691368e+00  9.4339715009740281e+00  9.7400604684526222e+00  9.6973461426940410e+00  9.6095526465859784e+00  9.9988919698846832e+00  9.5807346937129889e+00  1.0335531883254630e+01  9.5273186182528029e+00  1.0513553402461856e+01  1.1249939411945491e+01  1.1589648541499363e+01  1.1970962208838039e+01  1.2188514680518132e+01  1.2364785072250601e+01  1.2546577540864741e+01  1.2563692537823634e+01  1.2720466541449941e+01  1.2620525429355576e+01  1.2726488717435609e+01  1.2552397784453154e+01  1.2562614320168175e+01  1.2346064339555307e+01  1.2209188334621786e+01  1.1951332354180348e+01  1.1608457071647255e+01  1.1238215049244136e+01  1.0534428236957803e+01  9.5807346861054654e+00  1.0081455654230375e+01  1.1249939409333141e+01  1.2315708874251575e+01  1.3132093160652264e+01  1.3794359819364752e+01  1.4296537807066755e+01  1.4682860928298219e+01  1.4977431088036161e+01  1.5161383325946593e+01  1.5294704374634073e+01  1.5312236844850423e+01  1.5295850836516722e+01  1.5159606338384490e+01  1.4980505171098804e+01  1.4679958979365120e+01  1.4300566808458683e+01  1.3791376700395523e+01  1.3135498362663929e+01  1.2311578689582907e+01  1.1238215051877456e+01  9.9988919836789840e+00  9.5064848159502091e+00  1.1589648544712373e+01  1.3132093161286567e+01  1.4330473517172562e+01  1.5280205639524089e+01  1.6023257137202272e+01  1.6595938689735494e+01  1.7022479186776579e+01  1.7313515901380040e+01  1.7488682344240118e+01  1.7541855950823258e+01  1.7489000707811275e+01  1.7313439058076991e+01  1.7023353653274896e+01  1.6595867786676941e+01  1.6024487278191419e+01  1.5280361200727983e+01  1.4332282590212873e+01  1.3135498362024888e+01  1.1608457068427365e+01  9.6095526278157450e+00  9.8124635320669160e+00  1.1970962205033171e+01  1.3794359818718993e+01  1.5280205639393202e+01  1.6476251596809746e+01  1.7424592202570075e+01  1.8160021293299661e+01  1.8708389927486312e+01  1.9087236428566762e+01  1.9310585608793037e+01  1.9383500600579165e+01  1.9310767001580182e+01  1.9087469231022190e+01  1.8708897196892337e+01  1.8160453128288111e+01  1.7425302142776854e+01  1.6476709923695275e+01  1.5280361200859677e+01  1.3791376701043076e+01  1.1951332357990921e+01  9.6973461646075130e+00  9.6231392530521127e+00  1.2188514684496411e+01  1.4296537807759055e+01  1.6023257137319057e+01  1.7424592202594258e+01  1.8544380994384113e+01  1.9417518683621587e+01  2.0070828269997062e+01  2.0523933453115976e+01  2.0790686896441176e+01  2.0878646016315201e+01  2.0790839753466525e+01  2.0524210549823032e+01  2.0071256706315747e+01  1.9418021310953602e+01  1.8545008156354491e+01  1.7425302142752660e+01  1.6024487278074762e+01  1.4300566807766510e+01  1.2209188330643984e+01  9.7400604455069466e+00  9.5427353757022289e+00  1.2364785068474257e+01  1.4682860927643203e+01  1.6595938689621246e+01  1.8160021293280511e+01  1.9417518683617537e+01  2.0402527657670330e+01  2.1141945580649217e+01  2.1656033412467163e+01  2.1958981493834646e+01  2.2059066064449180e+01  2.1959114804212437e+01  2.1656289189442848e+01  2.1142316394293996e+01  2.0402979571322728e+01  1.9418021310957617e+01  1.8160453128307132e+01  1.6595867786790691e+01  1.4679958980018164e+01  1.2346064343326466e+01  9.4339715227367922e+00  9.7821076979794590e+00  1.2546577544073317e+01  1.4977431088593717e+01  1.7022479186873358e+01  1.8708389927503244e+01  2.0070828269999875e+01  2.1141945580649825e+01  2.1948122082659577e+01  2.2509667336037353e+01  2.2840936179824336e+01  2.2950448088660703e+01  2.2841043973809231e+01  2.2509876248683749e+01  2.1948421370584335e+01  2.1142316394293395e+01  2.0071256706312965e+01  1.8708897196875640e+01  1.7023353653179157e+01  1.4980505170545063e+01  1.2562614316969460e+01  9.8731339471894195e+00  9.3281458866863769e+00  1.2563692535492276e+01  1.5161383325540893e+01  1.7313515901309426e+01  1.9087236428554490e+01  2.0523933453113823e+01  2.1656033412466801e+01  2.2509667336037271e+01  2.3105052087047458e+01  2.3456569143906357e+01  2.3572813227677603e+01  2.3456644831650742e+01  2.3105198874053276e+01  2.2509876248683845e+01  2.1656289189443186e+01  2.0524210549825114e+01  1.9087469231034127e+01  1.7313439058146230e+01  1.5159606338785032e+01  1.2552397786771076e+01  9.2626467231539333e+00  9.9048177867460510e+00  1.2720466542679077e+01  1.5294704374848902e+01  1.7488682344277663e+01  1.9310585608799602e+01  2.0790686896442320e+01  2.1958981493834848e+01  2.2840936179824368e+01  2.3456569143906357e+01  2.3820219998066197e+01  2.3940494122676544e+01  2.3820259010338187e+01  2.3456644831650742e+01  2.2841043973809228e+01  2.1959114804212255e+01  2.0790839753465452e+01  1.9310767001573996e+01  1.7489000707775372e+01  1.5295850836307972e+01  1.2726488716222251e+01  9.9390331205198752e+00  9.2247874145378415e+00  1.2620525429347296e+01  1.5312236844847233e+01  1.7541855950822406e+01  1.9383500600578973e+01  2.0878646016315166e+01  2.2059066064449169e+01  2.2950448088660707e+01  2.3572813227677607e+01  2.3940494122676551e+01  2.4062097839698048e+01  2.3940494122676554e+01  2.3572813227677617e+01  2.2950448088660718e+01  2.2059066064449180e+01  2.0878646016315166e+01  1.9383500600578962e+01  1.7541855950822399e+01  1.5312236844847233e+01  1.2620525429347303e+01  9.2247874145378415e+00  9.9390331205198592e+00  1.2726488716222242e+01  1.5295850836307968e+01  1.7489000707775372e+01  1.9310767001574007e+01  2.0790839753465463e+01  2.1959114804212245e+01  2.2841043973809199e+01  2.3456644831650728e+01  2.3820259010338184e+01  2.3940494122676554e+01  2.3820219998066214e+01  2.3456569143906378e+01  2.2840936179824393e+01  2.1958981493834866e+01  2.0790686896442320e+01  1.9310585608799599e+01  1.7488682344277652e+01  1.5294704374848900e+01  1.2720466542679075e+01  9.9048177867460279e+00  9.2626467231539706e+00  1.2552397786771076e+01  1.5159606338785032e+01  1.7313439058146226e+01  1.9087469231034131e+01  2.0524210549825114e+01  2.1656289189443175e+01  2.2509876248683828e+01  2.3105198874053265e+01  2.3456644831650735e+01  2.3572813227677617e+01  2.3456569143906364e+01  2.3105052087047493e+01  2.2509667336037303e+01  2.1656033412466826e+01  2.0523933453113823e+01  1.9087236428554487e+01  1.7313515901309412e+01  1.5161383325540879e+01  1.2563692535492281e+01  9.3281458866864373e+00  9.8731339471893769e+00  1.2562614316969452e+01  1.4980505170545067e+01  1.7023353653179161e+01  1.8708897196875643e+01  2.0071256706312965e+01  2.1142316394293388e+01  2.1948421370584331e+01  2.2509876248683753e+01  2.2841043973809239e+01  2.2950448088660714e+01  2.2840936179824354e+01  2.2509667336037374e+01  2.1948122082659602e+01  2.1141945580649836e+01  2.0070828269999872e+01  1.8708389927503237e+01  1.7022479186873340e+01  1.4977431088593699e+01  1.2546577544073294e+01  9.7821076979793631e+00  9.4339715227368437e+00  1.2346064343326468e+01  1.4679958980018162e+01  1.6595867786790684e+01  1.8160453128307129e+01  1.9418021310957609e+01  2.0402979571322714e+01  2.1142316394293982e+01  2.1656289189442827e+01  2.1959114804212419e+01  2.2059066064449176e+01  2.1958981493834646e+01  2.1656033412467167e+01  2.1141945580649224e+01  2.0402527657670330e+01  1.9417518683617523e+01  1.8160021293280501e+01  1.6595938689621228e+01  1.4682860927643183e+01  1.2364785068474271e+01  9.5427353757023479e+00  9.7400604455068898e+00  1.2209188330643963e+01  1.4300566807766495e+01  1.6024487278074744e+01  1.7425302142752642e+01  1.8545008156354470e+01  1.9418021310953581e+01  2.0071256706315719e+01  2.0524210549823010e+01  2.0790839753466503e+01  2.0878646016315198e+01  2.0790686896441173e+01  2.0523933453115973e+01  2.0070828269997047e+01  1.9417518683621569e+01  1.8544380994384092e+01  1.7424592202594244e+01  1.6023257137319042e+01  1.4296537807759037e+01  1.2188514684496383e+01  9.6231392530519830e+00  9.6973461646075663e+00  1.1951332357990909e+01  1.3791376701043067e+01  1.5280361200859668e+01  1.6476709923695264e+01  1.7425302142776836e+01  1.8160453128288090e+01  1.8708897196892313e+01  1.9087469231022169e+01  1.9310767001580164e+01  1.9383500600579151e+01  1.9310585608793026e+01  1.9087236428566744e+01  1.8708389927486291e+01  1.8160021293299632e+01  1.7424592202570050e+01  1.6476251596809725e+01  1.5280205639393190e+01  1.3794359818718993e+01  1.1970962205033191e+01  9.8124635320670368e+00  9.6095526278156971e+00  1.1608457068427350e+01  1.3135498362024887e+01  1.4332282590212881e+01  1.5280361200727983e+01  1.6024487278191412e+01  1.6595867786676934e+01  1.7023353653274885e+01  1.7313439058076980e+01  1.7489000707811265e+01  1.7541855950823248e+01  1.7488682344240100e+01  1.7313515901380022e+01  1.7022479186776561e+01  1.6595938689735469e+01  1.6023257137202251e+01  1.5280205639524073e+01  1.4330473517172555e+01  1.3132093161286562e+01  1.1589648544712361e+01  9.5064848159501096e+00  9.9988919836790213e+00  1.1238215051877459e+01  1.2311578689582909e+01  1.3135498362663933e+01  1.3791376700395526e+01  1.4300566808458681e+01  1.4679958979365120e+01  1.4980505171098796e+01  1.5159606338384481e+01  1.5295850836516719e+01  1.5312236844850414e+01  1.5294704374634067e+01  1.5161383325946581e+01  1.4977431088036152e+01  1.4682860928298206e+01  1.4296537807066743e+01  1.3794359819364750e+01  1.3132093160652261e+01  1.2315708874251580e+01  1.1249939409333155e+01  1.0081455654230442e+01  9.5807346861054494e+00  1.0534428236957796e+01  1.1238215049244134e+01  1.1608457071647269e+01  1.1951332354180369e+01  1.2209188334621798e+01  1.2346064339555323e+01  1.2562614320168173e+01  1.2552397784453158e+01  1.2726488717435620e+01  1.2620525429355579e+01  1.2720466541449952e+01  1.2563692537823622e+01  1.2546577540864750e+01  1.2364785072250589e+01  1.2188514680518148e+01  1.1970962208838037e+01  1.1589648541499368e+01  1.1249939411945491e+01  1.0513553402461850e+01  9.5273186182527585e+00  1.0335531883254637e+01  9.5807346937129871e+00  9.9988919698846708e+00  9.6095526465860068e+00  9.6973461426940020e+00  9.7400604684526559e+00  9.4339715009740139e+00  9.8731339656691262e+00  9.2626467097407623e+00  9.9390331275720492e+00  9.2247874145272597e+00  9.9048177797140013e+00  9.3281459000824150e+00  9.7821076795122526e+00  9.5427353974583777e+00  9.6231392301065775e+00  9.8124635539868450e+00  9.5064847971678077e+00  1.0081455668041786e+01  9.5273186106233272e+00  1.0361505495751802e+01  </DataArray> 
</PointData> 
</Piece>
</UnstructuredGrid>
</VTKFile>