<?xml version="1.0"?>
<VTKFile type="UnstructuredGrid"  version="0.1"  >
<UnstructuredGrid>
<Piece  NumberOfPoints="441" NumberOfCells="800">
<Points>
<DataArray  type="Float64"  NumberOfComponents="3"  format="ascii">0 0 0  0.05 0 0  0.1 0 0  0.15 0 0  0.2 0 0  0.25 0 0  0.3 0 0  0.35 0 0  0.4 0 0  0.45 0 0  0.5 0 0  0.55 0 0  0.6 0 0  0.65 0 0  0.7 0 0  0.75 0 0  0.8 0 0  0.85 0 0  0.9 0 0  0.95 0 0  1 0 0  0 0.05 0  0.05 0.05 0  0.1 0.05 0  0.15 0.05 0  0.2 0.05 0  0.25 0.05 0  0.3 0.05 0  0.35 0.05 0  0.4 0.05 0  0.45 0.05 0  0.5 0.05 0  0.55 0.05 0  0.6 0.05 0  0.65 0.05 0  0.7 0.05 0  0.75 0.05 0  0.8 0.05 0  0.85 0.05 0  0.9 0.05 0  0.95 0.05 0  1 0.05 0  0 0.1 0  0.05 0.1 0  0.1 0.1 0  0.15 0.1 0  0.2 0.1 0  0.25 0.1 0  0.3 0.1 0  0.35 0.1 0  0.4 0.1 0  0.45 0.1 0  0.5 0.1 0  0.55 0.1 0  0.6 0.1 0  0.65 0.1 0  0.7 0.1 0  0.75 0.1 0  0.8 0.1 0  0.85 0.1 0  0.9 0.1 0  0.95 0.1 0  1 0.1 0  0 0.15 0  0.05 0.15 0  0.1 0.15 0  0.15 0.15 0  0.2 0.15 0  0.25 0.15 0  0.3 0.15 0  0.35 0.15 0  0.4 0.15 0  0.45 0.15 0  0.5 0.15 0  0.55 0.15 0  0.6 0.15 0  0.65 0.15 0  0.7 0.15 0  0.75 0.15 0  0.8 0.15 0  0.85 0.15 0  0.9 0.15 0  0.95 0.15 0  1 0.15 0  0 0.2 0  0.05 0.2 0  0.1 0.2 0  0.15 0.2 0  0.2 0.2 0  0.25 0.2 0  0.3 0.2 0  0.35 0.2 0  0.4 0.2 0  0.45 0.2 0  0.5 0.2 0  0.55 0.2 0  0.6 0.2 0  0.65 0.2 0  0.7 0.2 0  0.75 0.2 0  0.8 0.2 0  0.85 0.2 0  0.9 0.2 0  0.95 0.2 0  1 0.2 0  0 0.25 0  0.05 0.25 0  0.1 0.25 0  0.15 0.25 0  0.2 0.25 0  0.25 0.25 0  0.3 0.25 0  0.35 0.25 0  0.4 0.25 0  0.45 0.25 0  0.5 0.25 0  0.55 0.25 0  0.6 0.25 0  0.65 0.25 0  0.7 0.25 0  0.75 0.25 0  0.8 0.25 0  0.85 0.25 0  0.9 0.25 0  0.95 0.25 0  1 0.25 0  0 0.3 0  0.05 0.3 0  0.1 0.3 0  0.15 0.3 0  0.2 0.3 0  0.25 0.3 0  0.3 0.3 0  0.35 0.3 0  0.4 0.3 0  0.45 0.3 0  0.5 0.3 0  0.55 0.3 0  0.6 0.3 0  0.65 0.3 0  0.7 0.3 0  0.75 0.3 0  0.8 0.3 0  0.85 0.3 0  0.9 0.3 0  0.95 0.3 0  1 0.3 0  0 0.35 0  0.05 0.35 0  0.1 0.35 0  0.15 0.35 0  0.2 0.35 0  0.25 0.35 0  0.3 0.35 0  0.35 0.35 0  0.4 0.35 0  0.45 0.35 0  0.5 0.35 0  0.55 0.35 0  0.6 0.35 0  0.65 0.35 0  0.7 0.35 0  0.75 0.35 0  0.8 0.35 0  0.85 0.35 0  0.9 0.35 0  0.95 0.35 0  1 0.35 0  0 0.4 0  0.05 0.4 0  0.1 0.4 0  0.15 0.4 0  0.2 0.4 0  0.25 0.4 0  0.3 0.4 0  0.35 0.4 0  0.4 0.4 0  0.45 0.4 0  0.5 0.4 0  0.55 0.4 0  0.6 0.4 0  0.65 0.4 0  0.7 0.4 0  0.75 0.4 0  0.8 0.4 0  0.85 0.4 0  0.9 0.4 0  0.95 0.4 0  1 0.4 0  0 0.45 0  0.05 0.45 0  0.1 0.45 0  0.15 0.45 0  0.2 0.45 0  0.25 0.45 0  0.3 0.45 0  0.35 0.45 0  0.4 0.45 0  0.45 0.45 0  0.5 0.45 0  0.55 0.45 0  0.6 0.45 0  0.65 0.45 0  0.7 0.45 0  0.75 0.45 0  0.8 0.45 0  0.85 0.45 0  0.9 0.45 0  0.95 0.45 0  1 0.45 0  0 0.5 0  0.05 0.5 0  0.1 0.5 0  0.15 0.5 0  0.2 0.5 0  0.25 0.5 0  0.3 0.5 0  0.35 0.5 0  0.4 0.5 0  0.45 0.5 0  0.5 0.5 0  0.55 0.5 0  0.6 0.5 0  0.65 0.5 0  0.7 0.5 0  0.75 0.5 0  0.8 0.5 0  0.85 0.5 0  0.9 0.5 0  0.95 0.5 0  1 0.5 0  0 0.55 0  0.05 0.55 0  0.1 0.55 0  0.15 0.55 0  0.2 0.55 0  0.25 0.55 0  0.3 0.55 0  0.35 0.55 0  0.4 0.55 0  0.45 0.55 0  0.5 0.55 0  0.55 0.55 0  0.6 0.55 0  0.65 0.55 0  0.7 0.55 0  0.75 0.55 0  0.8 0.55 0  0.85 0.55 0  0.9 0.55 0  0.95 0.55 0  1 0.55 0  0 0.6 0  0.05 0.6 0  0.1 0.6 0  0.15 0.6 0  0.2 0.6 0  0.25 0.6 0  0.3 0.6 0  0.35 0.6 0  0.4 0.6 0  0.45 0.6 0  0.5 0.6 0  0.55 0.6 0  0.6 0.6 0  0.65 0.6 0  0.7 0.6 0  0.75 0.6 0  0.8 0.6 0  0.85 0.6 0  0.9 0.6 0  0.95 0.6 0  1 0.6 0  0 0.65 0  0.05 0.65 0  0.1 0.65 0  0.15 0.65 0  0.2 0.65 0  0.25 0.65 0  0.3 0.65 0  0.35 0.65 0  0.4 0.65 0  0.45 0.65 0  0.5 0.65 0  0.55 0.65 0  0.6 0.65 0  0.65 0.65 0  0.7 0.65 0  0.75 0.65 0  0.8 0.65 0  0.85 0.65 0  0.9 0.65 0  0.95 0.65 0  1 0.65 0  0 0.7 0  0.05 0.7 0  0.1 0.7 0  0.15 0.7 0  0.2 0.7 0  0.25 0.7 0  0.3 0.7 0  0.35 0.7 0  0.4 0.7 0  0.45 0.7 0  0.5 0.7 0  0.55 0.7 0  0.6 0.7 0  0.65 0.7 0  0.7 0.7 0  0.75 0.7 0  0.8 0.7 0  0.85 0.7 0  0.9 0.7 0  0.95 0.7 0  1 0.7 0  0 0.75 0  0.05 0.75 0  0.1 0.75 0  0.15 0.75 0  0.2 0.75 0  0.25 0.75 0  0.3 0.75 0  0.35 0.75 0  0.4 0.75 0  0.45 0.75 0  0.5 0.75 0  0.55 0.75 0  0.6 0.75 0  0.65 0.75 0  0.7 0.75 0  0.75 0.75 0  0.8 0.75 0  0.85 0.75 0  0.9 0.75 0  0.95 0.75 0  1 0.75 0  0 0.8 0  0.05 0.8 0  0.1 0.8 0  0.15 0.8 0  0.2 0.8 0  0.25 0.8 0  0.3 0.8 0  0.35 0.8 0  0.4 0.8 0  0.45 0.8 0  0.5 0.8 0  0.55 0.8 0  0.6 0.8 0  0.65 0.8 0  0.7 0.8 0  0.75 0.8 0  0.8 0.8 0  0.85 0.8 0  0.9 0.8 0  0.95 0.8 0  1 0.8 0  0 0.85 0  0.05 0.85 0  0.1 0.85 0  0.15 0.85 0  0.2 0.85 0  0.25 0.85 0  0.3 0.85 0  0.35 0.85 0  0.4 0.85 0  0.45 0.85 0  0.5 0.85 0  0.55 0.85 0  0.6 0.85 0  0.65 0.85 0  0.7 0.85 0  0.75 0.85 0  0.8 0.85 0  0.85 0.85 0  0.9 0.85 0  0.95 0.85 0  1 0.85 0  0 0.9 0  0.05 0.9 0  0.1 0.9 0  0.15 0.9 0  0.2 0.9 0  0.25 0.9 0  0.3 0.9 0  0.35 0.9 0  0.4 0.9 0  0.45 0.9 0  0.5 0.9 0  0.55 0.9 0  0.6 0.9 0  0.65 0.9 0  0.7 0.9 0  0.75 0.9 0  0.8 0.9 0  0.85 0.9 0  0.9 0.9 0  0.95 0.9 0  1 0.9 0  0 0.95 0  0.05 0.95 0  0.1 0.95 0  0.15 0.95 0  0.2 0.95 0  0.25 0.95 0  0.3 0.95 0  0.35 0.95 0  0.4 0.95 0  0.45 0.95 0  0.5 0.95 0  0.55 0.95 0  0.6 0.95 0  0.65 0.95 0  0.7 0.95 0  0.75 0.95 0  0.8 0.95 0  0.85 0.95 0  0.9 0.95 0  0.95 0.95 0  1 0.95 0  0 1 0  0.05 1 0  0.1 1 0  0.15 1 0  0.2 1 0  0.25 1 0  0.3 1 0  0.35 1 0  0.4 1 0  0.45 1 0  0.5 1 0  0.55 1 0  0.6 1 0  0.65 1 0  0.7 1 0  0.75 1 0  0.8 1 0  0.85 1 0  0.9 1 0  0.95 1 0  1 1 0  </DataArray>
</Points>
<Cells>
[...]
<PointData  Scalars="f_6847"> 
<DataArray  type="Float64"  Name="f_6847"  format="ascii">1.3631106743641494e+01  5.2542305663456723e+00  1.0807768952832165e+01  5.0361324303925041e+00  8.0948849815473238e+00  6.1972401591058048e+00  5.3775167003797142e+00  7.7842649816267153e+00  3.2181314087353972e+00  9.0101185500661938e+00  2.1802699104624184e+00  9.3516921117715306e+00  2.5645860975767762e+00  8.6929937715297640e+00  4.2923117335090888e+00  7.3645061737411099e+00  6.9463548029727002e+00  6.0651282878225921e+00  9.9841209847884347e+00  5.7875207451610757e+00  1.3372027899507257e+01  5.2540649181651826e+00  1.5181301318225428e+01  2.2608451998355189e+01  2.6058049362617460e+01  2.9922555130976900e+01  3.2143163740917956e+01  3.3942212689598357e+01  3.5793802191370489e+01  3.5983224771380883e+01  3.7569243708461713e+01  3.6569149361960989e+01  3.7628827537252228e+01  3.5869490468906406e+01  3.5952404100099294e+01  3.3753575105264545e+01  3.2347443256482471e+01  2.9724510121034157e+01  2.6243708222727157e+01  2.2489751078627414e+01  1.5388655059494422e+01  5.7876859174816442e+00  1.0808068821055137e+01  2.2608508716612437e+01  3.3386789263762921e+01  4.1665208585494568e+01  4.8394312343488508e+01  5.3510878495982553e+01  5.7454627545920737e+01  6.0465794533367912e+01  6.2352024992720033e+01  6.3714797608145723e+01  6.3898573106592167e+01  6.3725289055888233e+01  6.2332442750864438e+01  6.0493832259664480e+01  5.7422391514457523e+01  5.3547394010726535e+01  4.8360710443613961e+01  4.1695572149526946e+01  3.3342603975112993e+01  2.2489693904761534e+01  9.9838214866295392e+00  5.0357246338830715e+00  2.6057979602967340e+01  4.1665194813744456e+01  5.3821989848786707e+01  6.3479004200808895e+01  7.1051889079767818e+01  7.6900171333042181e+01  8.1263325833241993e+01  8.4244924656583748e+01  8.6040014016871908e+01  8.6585728254031991e+01  8.6041974297314482e+01  8.4241793873193345e+01  8.1268681878324003e+01  7.6895298460865334e+01  7.1059492621225630e+01  6.3475744914684398e+01  5.3835552307350298e+01  4.1695586024203898e+01  2.6243778132346918e+01  6.0655358222782141e+00  8.0953608990750681e+00  2.9922637740669142e+01  4.8394326363981364e+01  6.3479007042538875e+01  7.5648418124140136e+01  8.5318217286865334e+01  9.2831661853220353e+01  9.8443315224368618e+01  1.0232529658144064e+02  1.0461560452403030e+02  1.0536336140728626e+02  1.0461608117012904e+02  1.0232503200728550e+02  9.8444694429125605e+01  9.2831433099774756e+01  8.5320231666623371e+01  7.5647798817786835e+01  6.3475742055408524e+01  4.8360696384312938e+01  2.9724427387628236e+01  6.9458790231243484e+00  6.1967419739594147e+00  3.2143077366250445e+01  5.3510863464928093e+01  7.1051886544017023e+01  8.5318216761665866e+01  9.6741833360147595e+01  1.0566601357897596e+02  1.1235415630033107e+02  1.1699860135503675e+02  1.1973505346136758e+02  1.2063735393018555e+02  1.1973526070219630e+02  1.1699881087147325e+02  1.1235480001662079e+02  1.0566656465387156e+02  9.6743119825045113e+01  8.5320232191846870e+01  7.1059495154097831e+01  5.3547409039043650e+01  3.2347529621744307e+01  7.3650043645044967e+00  5.3779890618583917e+00  3.3942294680004245e+01  5.7454641767420078e+01  7.6900173813432957e+01  9.2831662268794830e+01  1.0566601366685580e+02  1.1573769663981707e+02  1.2331012209873192e+02  1.2858142323442817e+02  1.3169023676049827e+02  1.3271734144137503e+02  1.3169037625122547e+02  1.2858166842596381e+02  1.2331054773586334e+02  1.1573818751982888e+02  1.0566656456644552e+02  9.2831432686631501e+01  7.6895295991127099e+01  5.7422377335815341e+01  3.3753493227091575e+01  4.2918392259296034e+00  7.7838640283800036e+00  3.5793732528140978e+01  6.0465782428028916e+01  8.1263323731959304e+01  9.8443314856602015e+01  1.1235415623911548e+02  1.2331012208543042e+02  1.3156885053550911e+02  1.3732848304222409e+02  1.4072894698060611e+02  1.4185323871704426e+02  1.4072904967595198e+02  1.3732868360453728e+02  1.3156916523010543e+02  1.2331054774883472e+02  1.1235480007651702e+02  9.8444694791364171e+01  8.1268683956906344e+01  6.0493844282235706e+01  3.5952473549629119e+01  8.6933949981248571e+00  3.2184222584368696e+00  3.5983275388796017e+01  6.2352033801222866e+01  8.4244926189721681e+01  1.0232529684769808e+02  1.1699860140178615e+02  1.2858142324207546e+02  1.3732848304394639e+02  1.4343664364249699e+02  1.4704583688843101e+02  1.4823964879878918e+02  1.4704590537976350e+02  1.4343677892521538e+02  1.3732868360285792e+02  1.2858166841854873e+02  1.1699881082610749e+02  1.0232503174785688e+02  8.4241792369878496e+01  6.2332434054322391e+01  3.5869440142677462e+01  2.5642948740046956e+00  9.0099658731472552e+00  3.7569217022205429e+01  6.3714792943854810e+01  8.6040013201674654e+01  1.0461560438141514e+02  1.1973505343647119e+02  1.3169023675603833e+02  1.4072894697987928e+02  1.4704583688824869e+02  1.5078025430816481e+02  1.5201578705326006e+02  1.5078028875097442e+02  1.4704590537991106e+02  1.4072904967655666e+02  1.3169037625521148e+02  1.1973526072512229e+02  1.0461608130421402e+02  8.6041975076845446e+01  6.3725293588205979e+01  3.7628853881565625e+01  9.3518452271560832e+00  2.1802696801317349e+00  3.6569149541459133e+01  6.3898573175697386e+01  8.6585728272525003e+01  1.0536336141156187e+02  1.2063735393107113e+02  1.3271734144152930e+02  1.4185323871706007e+02  1.4823964879878591e+02  1.5201578705325963e+02  1.5326521513582097e+02  1.5201578705325966e+02  1.4823964879878599e+02  1.4185323871706021e+02  1.3271734144152941e+02  1.2063735393107119e+02  1.0536336141156187e+02  8.6585728272525017e+01  6.3898573175697408e+01  3.6569149541459176e+01  2.1802696801318193e+00  9.3518452271561703e+00  3.7628853881565604e+01  6.3725293588205957e+01  8.6041975076845389e+01  1.0461608130421401e+02  1.1973526072512220e+02  1.3169037625521131e+02  1.4072904967655646e+02  1.4704590537991092e+02  1.5078028875097434e+02  1.5201578705326006e+02  1.5078025430816490e+02  1.4704583688824880e+02  1.4072894697987942e+02  1.3169023675603839e+02  1.1973505343647120e+02  1.0461560438141514e+02  8.6040013201674668e+01  6.3714792943854803e+01  3.7569217022205443e+01  9.0099658731471841e+00  2.5642948740046201e+00  3.5869440142677419e+01  6.2332434054322398e+01  8.4241792369878468e+01  1.0232503174785687e+02  1.1699881082610737e+02  1.2858166841854862e+02  1.3732868360285778e+02  1.4343677892521524e+02  1.4704590537976344e+02  1.4823964879878920e+02  1.4704583688843104e+02  1.4343664364249710e+02  1.3732848304394656e+02  1.2858142324207554e+02  1.1699860140178623e+02  1.0232529684769807e+02  8.4244926189721653e+01  6.2352033801222831e+01  3.5983275388796038e+01  3.2184222584369073e+00  8.6933949981249103e+00  3.5952473549629104e+01  6.0493844282235735e+01  8.1268683956906330e+01  9.8444694791364171e+01  1.1235480007651699e+02  1.2331054774883461e+02  1.3156916523010534e+02  1.3732868360453722e+02  1.4072904967595196e+02  1.4185323871704423e+02  1.4072894698060617e+02  1.3732848304222418e+02  1.3156885053550923e+02  1.2331012208543042e+02  1.1235415623911545e+02  9.8443314856601987e+01  8.1263323731959218e+01  6.0465782428028874e+01  3.5793732528140964e+01  7.7838640283800018e+00  4.2918392259295484e+00  3.3753493227091532e+01  5.7422377335815312e+01  7.6895295991127028e+01  9.2831432686631473e+01  1.0566656456644547e+02  1.1573818751982878e+02  1.2331054773586318e+02  1.2858166842596370e+02  1.3169037625122536e+02  1.3271734144137497e+02  1.3169023676049824e+02  1.2858142323442823e+02  1.2331012209873192e+02  1.1573769663981707e+02  1.0566601366685579e+02  9.2831662268794773e+01  7.6900173813432872e+01  5.7454641767420014e+01  3.3942294680004252e+01  5.3779890618583792e+00  7.3650043645045500e+00  3.2347529621744279e+01  5.3547409039043593e+01  7.1059495154097718e+01  8.5320232191846785e+01  9.6743119825045014e+01  1.0566656465387140e+02  1.1235480001662060e+02  1.1699881087147307e+02  1.1973526070219609e+02  1.2063735393018543e+02  1.1973505346136753e+02  1.1699860135503677e+02  1.1235415630033101e+02  1.0566601357897591e+02  9.6741833360147524e+01  8.5318216761665738e+01  7.1051886544016952e+01  5.3510863464928050e+01  3.2143077366250452e+01  6.1967419739594440e+00  6.9458790231243066e+00  2.9724427387628186e+01  4.8360696384312902e+01  6.3475742055408460e+01  7.5647798817786764e+01  8.5320231666623300e+01  9.2831433099774614e+01  9.8444694429125406e+01  1.0232503200728529e+02  1.0461608117012888e+02  1.0536336140728611e+02  1.0461560452403025e+02  1.0232529658144057e+02  9.8443315224368519e+01  9.2831661853220282e+01  8.5318217286865263e+01  7.5648418124140051e+01  6.3479007042538818e+01  4.8394326363981342e+01  2.9922637740669138e+01  8.0953608990750165e+00  6.0655358222782558e+00  2.6243778132346900e+01  4.1695586024203898e+01  5.3835552307350291e+01  6.3475744914684370e+01  7.1059492621225559e+01  7.6895298460865249e+01  8.1268681878323875e+01  8.4241793873193245e+01  8.6041974297314368e+01  8.6585728254031878e+01  8.6040014016871822e+01  8.4244924656583677e+01  8.1263325833241879e+01  7.6900171333042096e+01  7.1051889079767747e+01  6.3479004200808838e+01  5.3821989848786693e+01  4.1665194813744442e+01  2.6057979602967361e+01  5.0357246338831407e+00  9.9838214866295019e+00  2.2489693904761513e+01  3.3342603975112979e+01  4.1695572149526939e+01  4.8360710443613954e+01  5.3547394010726485e+01  5.7422391514457459e+01  6.0493832259664380e+01  6.2332442750864352e+01  6.3725289055888162e+01  6.3898573106592096e+01  6.3714797608145666e+01  6.2352024992719990e+01  6.0465794533367870e+01  5.7454627545920665e+01  5.3510878495982489e+01  4.8394312343488473e+01  4.1665208585494533e+01  3.3386789263762907e+01  2.2608508716612437e+01  1.0808068821055063e+01  5.7876859174816806e+00  1.5388655059494434e+01  2.2489751078627418e+01  2.6243708222727193e+01  2.9724510121034200e+01  3.2347443256482485e+01  3.3753575105264567e+01  3.5952404100099280e+01  3.5869490468906427e+01  3.7628827537252221e+01  3.6569149361961003e+01  3.7569243708461734e+01  3.5983224771380918e+01  3.5793802191370503e+01  3.3942212689598350e+01  3.2143163740917977e+01  2.9922555130976882e+01  2.6058049362617481e+01  2.2608451998355189e+01  1.5181301318225467e+01  5.2540649181652368e+00  1.3372027899507222e+01  5.7875207451611237e+00  9.9841209847883832e+00  6.0651282878226462e+00  6.9463548029726612e+00  7.3645061737411055e+00  4.2923117335091483e+00  8.6929937715296539e+00  2.5645860975768944e+00  9.3516921117714347e+00  2.1802699104624890e+00  9.0101185500661689e+00  3.2181314087353754e+00  7.7842649816267668e+00  5.3775167003796431e+00  6.1972401591058777e+00  8.0948849815472457e+00  5.0361324303925787e+00  1.0807768952832095e+01  5.2542305663457274e+00  1.3631106743641446e+01  </DataArray> 
</PointData> 
</Piece>
</UnstructuredGrid>
</VTKFile>