<?xml version="1.0"?>
<VTKFile type="UnstructuredGrid"  version="0.1"  >
<UnstructuredGrid>
<Piece  NumberOfPoints="441" NumberOfCells="800">
<Points>
<DataArray  type="Float64"  NumberOfComponents="3"  format="ascii">0 0 0  0.05 0 0  0.1 0 0  0.15 0 0  0.2 0 0  0.25 0 0  0.3 0 0  0.35 0 0  0.4 0 0  0.45 0 0  0.5 0 0  0.55 0 0  0.6 0 0  0.65 0 0  0.7 0 0  0.75 0 0  0.8 0 0  0.85 0 0  0.9 0 0  0.95 0 0  1 0 0  0 0.05 0  0.05 0.05 0  0.1 0.05 0  0.15 0.05 0  0.2 0.05 0  0.25 0.05 0  0.3 0.05 0  0.35 0.05 0  0.4 0.05 0  0.45 0.05 0  0.5 0.05 0  0.55 0.05 0  0.6 0.05 0  0.65 0.05 0  0.7 0.05 0  0.75 0.05 0  0.8 0.05 0  0.85 0.05 0  0.9 0.05 0  0.95 0.05 0  1 0.05 0  0 0.1 0  0.05 0.1 0  0.1 0.1 0  0.15 0.1 0  0.2 0.1 0  0.25 0.1 0  0.3 0.1 0  0.35 0.1 0  0.4 0.1 0  0.45 0.1 0  0.5 0.1 0  0.55 0.1 0  0.6 0.1 0  0.65 0.1 0  0.7 0.1 0  0.75 0.1 0  0.8 0.1 0  0.85 0.1 0  0.9 0.1 0  0.95 0.1 0  1 0.1 0  0 0.15 0  0.05 0.15 0  0.1 0.15 0  0.15 0.15 0  0.2 0.15 0  0.25 0.15 0  0.3 0.15 0  0.35 0.15 0  0.4 0.15 0  0.45 0.15 0  0.5 0.15 0  0.55 0.15 0  0.6 0.15 0  0.65 0.15 0  0.7 0.15 0  0.75 0.15 0  0.8 0.15 0  0.85 0.15 0  0.9 0.15 0  0.95 0.15 0  1 0.15 0  0 0.2 0  0.05 0.2 0  0.1 0.2 0  0.15 0.2 0  0.2 0.2 0  0.25 0.2 0  0.3 0.2 0  0.35 0.2 0  0.4 0.2 0  0.45 0.2 0  0.5 0.2 0  0.55 0.2 0  0.6 0.2 0  0.65 0.2 0  0.7 0.2 0  0.75 0.2 0  0.8 0.2 0  0.85 0.2 0  0.9 0.2 0  0.95 0.2 0  1 0.2 0  0 0.25 0  0.05 0.25 0  0.1 0.25 0  0.15 0.25 0  0.2 0.25 0  0.25 0.25 0  0.3 0.25 0  0.35 0.25 0  0.4 0.25 0  0.45 0.25 0  0.5 0.25 0  0.55 0.25 0  0.6 0.25 0  0.65 0.25 0  0.7 0.25 0  0.75 0.25 0  0.8 0.25 0  0.85 0.25 0  0.9 0.25 0  0.95 0.25 0  1 0.25 0  0 0.3 0  0.05 0.3 0  0.1 0.3 0  0.15 0.3 0  0.2 0.3 0  0.25 0.3 0  0.3 0.3 0  0.35 0.3 0  0.4 0.3 0  0.45 0.3 0  0.5 0.3 0  0.55 0.3 0  0.6 0.3 0  0.65 0.3 0  0.7 0.3 0  0.75 0.3 0  0.8 0.3 0  0.85 0.3 0  0.9 0.3 0  0.95 0.3 0  1 0.3 0  0 0.35 0  0.05 0.35 0  0.1 0.35 0  0.15 0.35 0  0.2 0.35 0  0.25 0.35 0  0.3 0.35 0  0.35 0.35 0  0.4 0.35 0  0.45 0.35 0  0.5 0.35 0  0.55 0.35 0  0.6 0.35 0  0.65 0.35 0  0.7 0.35 0  0.75 0.35 0  0.8 0.35 0  0.85 0.35 0  0.9 0.35 0  0.95 0.35 0  1 0.35 0  0 0.4 0  0.05 0.4 0  0.1 0.4 0  0.15 0.4 0  0.2 0.4 0  0.25 0.4 0  0.3 0.4 0  0.35 0.4 0  0.4 0.4 0  0.45 0.4 0  0.5 0.4 0  0.55 0.4 0  0.6 0.4 0  0.65 0.4 0  0.7 0.4 0  0.75 0.4 0  0.8 0.4 0  0.85 0.4 0  0.9 0.4 0  0.95 0.4 0  1 0.4 0  0 0.45 0  0.05 0.45 0  0.1 0.45 0  0.15 0.45 0  0.2 0.45 0  0.25 0.45 0  0.3 0.45 0  0.35 0.45 0  0.4 0.45 0  0.45 0.45 0  0.5 0.45 0  0.55 0.45 0  0.6 0.45 0  0.65 0.45 0  0.7 0.45 0  0.75 0.45 0  0.8 0.45 0  0.85 0.45 0  0.9 0.45 0  0.95 0.45 0  1 0.45 0  0 0.5 0  0.05 0.5 0  0.1 0.5 0  0.15 0.5 0  0.2 0.5 0  0.25 0.5 0  0.3 0.5 0  0.35 0.5 0  0.4 0.5 0  0.45 0.5 0  0.5 0.5 0  0.55 0.5 0  0.6 0.5 0  0.65 0.5 0  0.7 0.5 0  0.75 0.5 0  0.8 0.5 0  0.85 0.5 0  0.9 0.5 0  0.95 0.5 0  1 0.5 0  0 0.55 0  0.05 0.55 0  0.1 0.55 0  0.15 0.55 0  0.2 0.55 0  0.25 0.55 0  0.3 0.55 0  0.35 0.55 0  0.4 0.55 0  0.45 0.55 0  0.5 0.55 0  0.55 0.55 0  0.6 0.55 0  0.65 0.55 0  0.7 0.55 0  0.75 0.55 0  0.8 0.55 0  0.85 0.55 0  0.9 0.55 0  0.95 0.55 0  1 0.55 0  0 0.6 0  0.05 0.6 0  0.1 0.6 0  0.15 0.6 0  0.2 0.6 0  0.25 0.6 0  0.3 0.6 0  0.35 0.6 0  0.4 0.6 0  0.45 0.6 0  0.5 0.6 0  0.55 0.6 0  0.6 0.6 0  0.65 0.6 0  0.7 0.6 0  0.75 0.6 0  0.8 0.6 0  0.85 0.6 0  0.9 0.6 0  0.95 0.6 0  1 0.6 0  0 0.65 0  0.05 0.65 0  0.1 0.65 0  0.15 0.65 0  0.2 0.65 0  0.25 0.65 0  0.3 0.65 0  0.35 0.65 0  0.4 0.65 0  0.45 0.65 0  0.5 0.65 0  0.55 0.65 0  0.6 0.65 0  0.65 0.65 0  0.7 0.65 0  0.75 0.65 0  0.8 0.65 0  0.85 0.65 0  0.9 0.65 0  0.95 0.65 0  1 0.65 0  0 0.7 0  0.05 0.7 0  0.1 0.7 0  0.15 0.7 0  0.2 0.7 0  0.25 0.7 0  0.3 0.7 0  0.35 0.7 0  0.4 0.7 0  0.45 0.7 0  0.5 0.7 0  0.55 0.7 0  0.6 0.7 0  0.65 0.7 0  0.7 0.7 0  0.75 0.7 0  0.8 0.7 0  0.85 0.7 0  0.9 0.7 0  0.95 0.7 0  1 0.7 0  0 0.75 0  0.05 0.75 0  0.1 0.75 0  0.15 0.75 0  0.2 0.75 0  0.25 0.75 0  0.3 0.75 0  0.35 0.75 0  0.4 0.75 0  0.45 0.75 0  0.5 0.75 0  0.55 0.75 0  0.6 0.75 0  0.65 0.75 0  0.7 0.75 0  0.75 0.75 0  0.8 0.75 0  0.85 0.75 0  0.9 0.75 0  0.95 0.75 0  1 0.75 0  0 0.8 0  0.05 0.8 0  0.1 0.8 0  0.15 0.8 0  0.2 0.8 0  0.25 0.8 0  0.3 0.8 0  0.35 0.8 0  0.4 0.8 0  0.45 0.8 0  0.5 0.8 0  0.55 0.8 0  0.6 0.8 0  0.65 0.8 0  0.7 0.8 0  0.75 0.8 0  0.8 0.8 0  0.85 0.8 0  0.9 0.8 0  0.95 0.8 0  1 0.8 0  0 0.85 0  0.05 0.85 0  0.1 0.85 0  0.15 0.85 0  0.2 0.85 0  0.25 0.85 0  0.3 0.85 0  0.35 0.85 0  0.4 0.85 0  0.45 0.85 0  0.5 0.85 0  0.55 0.85 0  0.6 0.85 0  0.65 0.85 0  0.7 0.85 0  0.75 0.85 0  0.8 0.85 0  0.85 0.85 0  0.9 0.85 0  0.95 0.85 0  1 0.85 0  0 0.9 0  0.05 0.9 0  0.1 0.9 0  0.15 0.9 0  0.2 0.9 0  0.25 0.9 0  0.3 0.9 0  0.35 0.9 0  0.4 0.9 0  0.45 0.9 0  0.5 0.9 0  0.55 0.9 0  0.6 0.9 0  0.65 0.9 0  0.7 0.9 0  0.75 0.9 0  0.8 0.9 0  0.85 0.9 0  0.9 0.9 0  0.95 0.9 0  1 0.9 0  0 0.95 0  0.05 0.95 0  0.1 0.95 0  0.15 0.95 0  0.2 0.95 0  0.25 0.95 0  0.3 0.95 0  0.35 0.95 0  0.4 0.95 0  0.45 0.95 0  0.5 0.95 0  0.55 0.95 0  0.6 0.95 0  0.65 0.95 0  0.7 0.95 0  0.75 0.95 0  0.8 0.95 0  0.85 0.95 0  0.9 0.95 0  0.95 0.95 0  1 0.95 0  0 1 0  0.05 1 0  0.1 1 0  0.15 1 0  0.2 1 0  0.25 1 0  0.3 1 0  0.35 1 0  0.4 1 0  0.45 1 0  0.5 1 0  0.55 1 0  0.6 1 0  0.65 1 0  0.7 1 0  0.75 1 0  0.8 1 0  0.85 1 0  0.9 1 0  0.95 1 0  1 1 0  </DataArray>
</Points>
<Cells>
[...]
<PointData  Scalars="f_8047"> 
<DataArray  type="Float64"  Name="f_8047"  format="ascii">1.0361836993426239e+01  9.5269254308597464e+00  1.0081318725005815e+01  9.5058875867782238e+00  9.8118542998195171e+00  9.6224288765745989e+00  9.5417113189368052e+00  9.7813434855817292e+00  9.3268413444438796e+00  9.9040304549456639e+00  9.2233915085708329e+00  9.9382370082737150e+00  9.2613659649042663e+00  9.8723464387010136e+00  9.4329878424286040e+00  9.7393202930487277e+00  9.6967815656978242e+00  9.6089291856100232e+00  9.9987898391609367e+00  9.5803269987826702e+00  1.0335876920262214e+01  9.5269254460127613e+00  1.0514498329914353e+01  1.1252191740802798e+01  1.1592983626334798e+01  1.1975359520293354e+01  1.2193841063842333e+01  1.2370863624522418e+01  1.2553349593792394e+01  1.2570843099534388e+01  1.2727993724858578e+01  1.2628038763315780e+01  1.2734003290624910e+01  1.2559531069056153e+01  1.2569351384652805e+01  1.2352111683654838e+01  1.2214465814828708e+01  1.1955691911332885e+01  1.1611743535675265e+01  1.1240436118990200e+01  1.0535344392133533e+01  9.5803269836732294e+00  1.0081318697574737e+01  1.1252191735614375e+01  1.2320451526662394e+01  1.3139201327979036e+01  1.3803665886991798e+01  1.4307800616006867e+01  1.4695786485059896e+01  1.4991708025950894e+01  1.5176624854126855e+01  1.5310556134471938e+01  1.5328263139303736e+01  1.5311682618124355e+01  1.5174810300554617e+01  1.4994726598491347e+01  1.4692817885695183e+01  1.4311752057510638e+01  1.3800604676734462e+01  1.3142530707858880e+01  1.2316261836749231e+01  1.1240436124220286e+01  9.9987898665580790e+00  9.5058876240822610e+00  1.1592983632716205e+01  1.3139201329238835e+01  1.4341153303964957e+01  1.5294182637309259e+01  1.6040173578376454e+01  1.6615363090333002e+01  1.7043921757573830e+01  1.7336429217916873e+01  1.7512492228230986e+01  1.7565954457996597e+01  1.7512785376727397e+01  1.7336303618536569e+01  1.7044726372400032e+01  1.6615206245843947e+01  1.6041306859217499e+01  1.5294238804413542e+01  1.4342868947572892e+01  1.3142530706589666e+01  1.1611743529280155e+01  9.6089291483300610e+00  9.8118542562839792e+00  1.1975359512736459e+01  1.3803665885709242e+01  1.5294182637049303e+01  1.6494542835919852e+01  1.7446731874790075e+01  1.8185446995088775e+01  1.8736457730455587e+01  1.9117235050665663e+01  1.9341757302381190e+01  1.9415056481878569e+01  1.9341911119301539e+01  1.9117414379078742e+01  1.8736888831129669e+01  1.8185785034196318e+01  1.7447336935987238e+01  1.6494893839216427e+01  1.5294238804675102e+01  1.3800604678020564e+01  1.1955691918901074e+01  9.6967816092206647e+00  9.6224289221471135e+00  1.2193841071743632e+01  1.4307800617381860e+01  1.6040173578608414e+01  1.7446731874838111e+01  1.8571181251466637e+01  1.9448299714846200e+01  2.0104810515263850e+01  2.0560256900937514e+01  2.0828433273845786e+01  2.0916861279229909e+01  2.0828558883979778e+01  2.0560481175037033e+01  2.0105163872818807e+01  1.9448710043991444e+01  1.8571705592149804e+01  1.7447336935939187e+01  1.6041306858985802e+01  1.4311752056135898e+01  1.2214465806928287e+01  9.7393202474758063e+00  9.5417112757265627e+00  1.2370863617022174e+01  1.4695786483758955e+01  1.6615363090106104e+01  1.8185446995050750e+01  1.9448299714838157e+01  2.0437883875916125e+01  2.1180981999732126e+01  2.1697762632940911e+01  2.2002348676660613e+01  2.2102975420336325e+01  2.2002457375280184e+01  2.1697970723920385e+01  2.1181285124713511e+01  2.0438252717126087e+01  1.9448710043999423e+01  1.8185785034234101e+01  1.6615206246069864e+01  1.4692817886992195e+01  1.2352111691144785e+01  9.4329878856521212e+00  9.7813435222597640e+00  1.2553349600164980e+01  1.4991708027058252e+01  1.7043921757766050e+01  1.8736457730489224e+01  2.0104810515269445e+01  2.1180981999733341e+01  2.1991225144609466e+01  2.2555747232489846e+01  2.2888828348918324e+01  2.2998942584958549e+01  2.2888916035012191e+01  2.2555917204958732e+01  2.1991469208706377e+01  2.1181285124712318e+01  2.0105163872813304e+01  1.8736888831096508e+01  1.7044726372209869e+01  1.4994726597391550e+01  1.2569351378299773e+01  9.8723464019980636e+00  9.3268413178377934e+00  1.2570843094904051e+01  1.5176624853321076e+01  1.7336429217776619e+01  1.9117235050641295e+01  2.0560256900933229e+01  2.1697762632940208e+01  2.2555747232489679e+01  2.3154318026458764e+01  2.3507776333263482e+01  2.3624668129657962e+01  2.3507837828311292e+01  2.3154437338245753e+01  2.2555917204958888e+01  2.1697970723921053e+01  2.0560481175041165e+01  1.9117414379102456e+01  1.7336303618674084e+01  1.5174810301350142e+01  1.2559531073659835e+01  9.2613659915445101e+00  9.9040304689121186e+00  1.2727993727299754e+01  1.5310556134898604e+01  1.7512492228305543e+01  1.9341757302394228e+01  2.0828433273848063e+01  2.2002348676661008e+01  2.2888828348918381e+01  2.3507776333263493e+01  2.3873448668316154e+01  2.3994399827183283e+01  2.3873480347622291e+01  2.3507837828311288e+01  2.2888916035012166e+01  2.2002457375279825e+01  2.0828558883977657e+01  1.9341911119289261e+01  1.7512785376656083e+01  1.5311682617709749e+01  1.2734003288215009e+01  9.9382369942671804e+00  9.2233915085918738e+00  1.2628038763299353e+01  1.5328263139297405e+01  1.7565954457994899e+01  1.9415056481878167e+01  2.0916861279229821e+01  2.2102975420336303e+01  2.2998942584958538e+01  2.3624668129657966e+01  2.3994399827183280e+01  2.4116692948795333e+01  2.3994399827183283e+01  2.3624668129657980e+01  2.2998942584958556e+01  2.2102975420336314e+01  2.0916861279229828e+01  1.9415056481878164e+01  1.7565954457994895e+01  1.5328263139297405e+01  1.2628038763299365e+01  9.2233915085919360e+00  9.9382369942672106e+00  1.2734003288215010e+01  1.5311682617709744e+01  1.7512785376656080e+01  1.9341911119289264e+01  2.0828558883977660e+01  2.2002457375279810e+01  2.2888916035012130e+01  2.3507837828311278e+01  2.3873480347622287e+01  2.3994399827183287e+01  2.3873448668316161e+01  2.3507776333263504e+01  2.2888828348918402e+01  2.2002348676661025e+01  2.0828433273848070e+01  1.9341757302394228e+01  1.7512492228305543e+01  1.5310556134898595e+01  1.2727993727299735e+01  9.9040304689120369e+00  9.2613659915445119e+00  1.2559531073659834e+01  1.5174810301350142e+01  1.7336303618674080e+01  1.9117414379102460e+01  2.0560481175041161e+01  2.1697970723921046e+01  2.2555917204958870e+01  2.3154437338245746e+01  2.3507837828311292e+01  2.3624668129657969e+01  2.3507776333263482e+01  2.3154318026458771e+01  2.2555747232489701e+01  2.1697762632940222e+01  2.0560256900933240e+01  1.9117235050641295e+01  1.7336429217776608e+01  1.5176624853321066e+01  1.2570843094904060e+01  9.3268413178378786e+00  9.8723464019980085e+00  1.2569351378299762e+01  1.4994726597391553e+01  1.7044726372209880e+01  1.8736888831096515e+01  2.0105163872813300e+01  2.1181285124712311e+01  2.1991469208706366e+01  2.2555917204958721e+01  2.2888916035012194e+01  2.2998942584958538e+01  2.2888828348918327e+01  2.2555747232489853e+01  2.1991225144609476e+01  2.1180981999733341e+01  2.0104810515269438e+01  1.8736457730489217e+01  1.7043921757766032e+01  1.4991708027058241e+01  1.2553349600164962e+01  9.7813435222596876e+00  9.4329878856522029e+00  1.2352111691144806e+01  1.4692817886992200e+01  1.6615206246069871e+01  1.8185785034234097e+01  1.9448710043999419e+01  2.0438252717126069e+01  2.1181285124713487e+01  2.1697970723920363e+01  2.2002457375280169e+01  2.2102975420336321e+01  2.2002348676660610e+01  2.1697762632940918e+01  2.1180981999732126e+01  2.0437883875916121e+01  1.9448299714838146e+01  1.8185446995050732e+01  1.6615363090106083e+01  1.4695786483758946e+01  1.2370863617022183e+01  9.5417112757266267e+00  9.7393202474756908e+00  1.2214465806928262e+01  1.4311752056135882e+01  1.6041306858985784e+01  1.7447336935939170e+01  1.8571705592149790e+01  1.9448710043991408e+01  2.0105163872818768e+01  2.0560481175037001e+01  2.0828558883979749e+01  2.0916861279229895e+01  2.0828433273845778e+01  2.0560256900937517e+01  2.0104810515263836e+01  1.9448299714846186e+01  1.8571181251466619e+01  1.7446731874838093e+01  1.6040173578608396e+01  1.4307800617381849e+01  1.2193841071743618e+01  9.6224289221470620e+00  9.6967816092207961e+00  1.1955691918901097e+01  1.3800604678020564e+01  1.5294238804675095e+01  1.6494893839216420e+01  1.7447336935987224e+01  1.8185785034196289e+01  1.8736888831129633e+01  1.9117414379078713e+01  1.9341911119301514e+01  1.9415056481878548e+01  1.9341757302381176e+01  1.9117235050665645e+01  1.8736457730455570e+01  1.8185446995088746e+01  1.7446731874790053e+01  1.6494542835919834e+01  1.5294182637049296e+01  1.3803665885709238e+01  1.1975359512736466e+01  9.8118542562840148e+00  9.6089291483299313e+00  1.1611743529280131e+01  1.3142530706589666e+01  1.4342868947572894e+01  1.5294238804413538e+01  1.6041306859217489e+01  1.6615206245843929e+01  1.7044726372400003e+01  1.7336303618536554e+01  1.7512785376727386e+01  1.7565954457996579e+01  1.7512492228230961e+01  1.7336429217916855e+01  1.7043921757573813e+01  1.6615363090332981e+01  1.6040173578376432e+01  1.5294182637309246e+01  1.4341153303964951e+01  1.3139201329238826e+01  1.1592983632716196e+01  9.5058876240822290e+00  9.9987898665581909e+00  1.1240436124220304e+01  1.2316261836749236e+01  1.3142530707858882e+01  1.3800604676734466e+01  1.4311752057510633e+01  1.4692817885695179e+01  1.4994726598491335e+01  1.5174810300554606e+01  1.5311682618124346e+01  1.5328263139303727e+01  1.5310556134471927e+01  1.5176624854126841e+01  1.4991708025950885e+01  1.4695786485059882e+01  1.4307800616006851e+01  1.3803665886991796e+01  1.3139201327979031e+01  1.2320451526662396e+01  1.1252191735614378e+01  1.0081318697574758e+01  9.5803269836731548e+00  1.0535344392133508e+01  1.1240436118990203e+01  1.1611743535675270e+01  1.1955691911332890e+01  1.2214465814828724e+01  1.2352111683654844e+01  1.2569351384652807e+01  1.2559531069056156e+01  1.2734003290624912e+01  1.2628038763315791e+01  1.2727993724858578e+01  1.2570843099534381e+01  1.2553349593792394e+01  1.2370863624522412e+01  1.2193841063842331e+01  1.1975359520293354e+01  1.1592983626334798e+01  1.1252191740802798e+01  1.0514498329914353e+01  9.5269254460127453e+00  1.0335876920262251e+01  9.5803269987826454e+00  9.9987898391609527e+00  9.6089291856100267e+00  9.6967815656978136e+00  9.7393202930487419e+00  9.4329878424285933e+00  9.8723464387010189e+00  9.2613659649042770e+00  9.9382370082737008e+00  9.2233915085708524e+00  9.9040304549456444e+00  9.3268413444438920e+00  9.7813434855817363e+00  9.5417113189367981e+00  9.6224288765746024e+00  9.8118542998195100e+00  9.5058875867782309e+00  1.0081318725005806e+01  9.5269254308597482e+00  1.0361836993426246e+01  </DataArray> 
</PointData> 
</Piece>
</UnstructuredGrid>
</VTKFile>