<?xml version="1.0"?>
<VTKFile type="UnstructuredGrid"  version="0.1"  >
<UnstructuredGrid>
<Piece  NumberOfPoints="441" NumberOfCells="800">
<Points>
<DataArray  type="Float64"  NumberOfComponents="3"  format="ascii">0 0 0  0.05 0 0  0.1 0 0  0.15 0 0  0.2 0 0  0.25 0 0  0.3 0 0  0.35 0 0  0.4 0 0  0.45 0 0  0.5 0 0  0.55 0 0  0.6 0 0  0.65 0 0  0.7 0 0  0.75 0 0  0.8 0 0  0.85 0 0  0.9 0 0  0.95 0 0  1 0 0  0 0.05 0  0.05 0.05 0  0.1 0.05 0  0.15 0.05 0  0.2 0.05 0  0.25 0.05 0  0.3 0.05 0  0.35 0.05 0  0.4 0.05 0  0.45 0.05 0  0.5 0.05 0  0.55 0.05 0  0.6 0.05 0  0.65 0.05 0  0.7 0.05 0  0.75 0.05 0  0.8 0.05 0  0.85 0.05 0  0.9 0.05 0  0.95 0.05 0  1 0.05 0  0 0.1 0  0.05 0.1 0  0.1 0.1 0  0.15 0.1 0  0.2 0.1 0  0.25 0.1 0  0.3 0.1 0  0.35 0.1 0  0.4 0.1 0  0.45 0.1 0  0.5 0.1 0  0.55 0.1 0  0.6 0.1 0  0.65 0.1 0  0.7 0.1 0  0.75 0.1 0  0.8 0.1 0  0.85 0.1 0  0.9 0.1 0  0.95 0.1 0  1 0.1 0  0 0.15 0  0.05 0.15 0  0.1 0.15 0  0.15 0.15 0  0.2 0.15 0  0.25 0.15 0  0.3 0.15 0  0.35 0.15 0  0.4 0.15 0  0.45 0.15 0  0.5 0.15 0  0.55 0.15 0  0.6 0.15 0  0.65 0.15 0  0.7 0.15 0  0.75 0.15 0  0.8 0.15 0  0.85 0.15 0  0.9 0.15 0  0.95 0.15 0  1 0.15 0  0 0.2 0  0.05 0.2 0  0.1 0.2 0  0.15 0.2 0  0.2 0.2 0  0.25 0.2 0  0.3 0.2 0  0.35 0.2 0  0.4 0.2 0  0.45 0.2 0  0.5 0.2 0  0.55 0.2 0  0.6 0.2 0  0.65 0.2 0  0.7 0.2 0  0.75 0.2 0  0.8 0.2 0  0.85 0.2 0  0.9 0.2 0  0.95 0.2 0  1 0.2 0  0 0.25 0  0.05 0.25 0  0.1 0.25 0  0.15 0.25 0  0.2 0.25 0  0.25 0.25 0  0.3 0.25 0  0.35 0.25 0  0.4 0.25 0  0.45 0.25 0  0.5 0.25 0  0.55 0.25 0  0.6 0.25 0  0.65 0.25 0  0.7 0.25 0  0.75 0.25 0  0.8 0.25 0  0.85 0.25 0  0.9 0.25 0  0.95 0.25 0  1 0.25 0  0 0.3 0  0.05 0.3 0  0.1 0.3 0  0.15 0.3 0  0.2 0.3 0  0.25 0.3 0  0.3 0.3 0  0.35 0.3 0  0.4 0.3 0  0.45 0.3 0  0.5 0.3 0  0.55 0.3 0  0.6 0.3 0  0.65 0.3 0  0.7 0.3 0  0.75 0.3 0  0.8 0.3 0  0.85 0.3 0  0.9 0.3 0  0.95 0.3 0  1 0.3 0  0 0.35 0  0.05 0.35 0  0.1 0.35 0  0.15 0.35 0  0.2 0.35 0  0.25 0.35 0  0.3 0.35 0  0.35 0.35 0  0.4 0.35 0  0.45 0.35 0  0.5 0.35 0  0.55 0.35 0  0.6 0.35 0  0.65 0.35 0  0.7 0.35 0  0.75 0.35 0  0.8 0.35 0  0.85 0.35 0  0.9 0.35 0  0.95 0.35 0  1 0.35 0  0 0.4 0  0.05 0.4 0  0.1 0.4 0  0.15 0.4 0  0.2 0.4 0  0.25 0.4 0  0.3 0.4 0  0.35 0.4 0  0.4 0.4 0  0.45 0.4 0  0.5 0.4 0  0.55 0.4 0  0.6 0.4 0  0.65 0.4 0  0.7 0.4 0  0.75 0.4 0  0.8 0.4 0  0.85 0.4 0  0.9 0.4 0  0.95 0.4 0  1 0.4 0  0 0.45 0  0.05 0.45 0  0.1 0.45 0  0.15 0.45 0  0.2 0.45 0  0.25 0.45 0  0.3 0.45 0  0.35 0.45 0  0.4 0.45 0  0.45 0.45 0  0.5 0.45 0  0.55 0.45 0  0.6 0.45 0  0.65 0.45 0  0.7 0.45 0  0.75 0.45 0  0.8 0.45 0  0.85 0.45 0  0.9 0.45 0  0.95 0.45 0  1 0.45 0  0 0.5 0  0.05 0.5 0  0.1 0.5 0  0.15 0.5 0  0.2 0.5 0  0.25 0.5 0  0.3 0.5 0  0.35 0.5 0  0.4 0.5 0  0.45 0.5 0  0.5 0.5 0  0.55 0.5 0  0.6 0.5 0  0.65 0.5 0  0.7 0.5 0  0.75 0.5 0  0.8 0.5 0  0.85 0.5 0  0.9 0.5 0  0.95 0.5 0  1 0.5 0  0 0.55 0  0.05 0.55 0  0.1 0.55 0  0.15 0.55 0  0.2 0.55 0  0.25 0.55 0  0.3 0.55 0  0.35 0.55 0  0.4 0.55 0  0.45 0.55 0  0.5 0.55 0  0.55 0.55 0  0.6 0.55 0  0.65 0.55 0  0.7 0.55 0  0.75 0.55 0  0.8 0.55 0  0.85 0.55 0  0.9 0.55 0  0.95 0.55 0  1 0.55 0  0 0.6 0  0.05 0.6 0  0.1 0.6 0  0.15 0.6 0  0.2 0.6 0  0.25 0.6 0  0.3 0.6 0  0.35 0.6 0  0.4 0.6 0  0.45 0.6 0  0.5 0.6 0  0.55 0.6 0  0.6 0.6 0  0.65 0.6 0  0.7 0.6 0  0.75 0.6 0  0.8 0.6 0  0.85 0.6 0  0.9 0.6 0  0.95 0.6 0  1 0.6 0  0 0.65 0  0.05 0.65 0  0.1 0.65 0  0.15 0.65 0  0.2 0.65 0  0.25 0.65 0  0.3 0.65 0  0.35 0.65 0  0.4 0.65 0  0.45 0.65 0  0.5 0.65 0  0.55 0.65 0  0.6 0.65 0  0.65 0.65 0  0.7 0.65 0  0.75 0.65 0  0.8 0.65 0  0.85 0.65 0  0.9 0.65 0  0.95 0.65 0  1 0.65 0  0 0.7 0  0.05 0.7 0  0.1 0.7 0  0.15 0.7 0  0.2 0.7 0  0.25 0.7 0  0.3 0.7 0  0.35 0.7 0  0.4 0.7 0  0.45 0.7 0  0.5 0.7 0  0.55 0.7 0  0.6 0.7 0  0.65 0.7 0  0.7 0.7 0  0.75 0.7 0  0.8 0.7 0  0.85 0.7 0  0.9 0.7 0  0.95 0.7 0  1 0.7 0  0 0.75 0  0.05 0.75 0  0.1 0.75 0  0.15 0.75 0  0.2 0.75 0  0.25 0.75 0  0.3 0.75 0  0.35 0.75 0  0.4 0.75 0  0.45 0.75 0  0.5 0.75 0  0.55 0.75 0  0.6 0.75 0  0.65 0.75 0  0.7 0.75 0  0.75 0.75 0  0.8 0.75 0  0.85 0.75 0  0.9 0.75 0  0.95 0.75 0  1 0.75 0  0 0.8 0  0.05 0.8 0  0.1 0.8 0  0.15 0.8 0  0.2 0.8 0  0.25 0.8 0  0.3 0.8 0  0.35 0.8 0  0.4 0.8 0  0.45 0.8 0  0.5 0.8 0  0.55 0.8 0  0.6 0.8 0  0.65 0.8 0  0.7 0.8 0  0.75 0.8 0  0.8 0.8 0  0.85 0.8 0  0.9 0.8 0  0.95 0.8 0  1 0.8 0  0 0.85 0  0.05 0.85 0  0.1 0.85 0  0.15 0.85 0  0.2 0.85 0  0.25 0.85 0  0.3 0.85 0  0.35 0.85 0  0.4 0.85 0  0.45 0.85 0  0.5 0.85 0  0.55 0.85 0  0.6 0.85 0  0.65 0.85 0  0.7 0.85 0  0.75 0.85 0  0.8 0.85 0  0.85 0.85 0  0.9 0.85 0  0.95 0.85 0  1 0.85 0  0 0.9 0  0.05 0.9 0  0.1 0.9 0  0.15 0.9 0  0.2 0.9 0  0.25 0.9 0  0.3 0.9 0  0.35 0.9 0  0.4 0.9 0  0.45 0.9 0  0.5 0.9 0  0.55 0.9 0  0.6 0.9 0  0.65 0.9 0  0.7 0.9 0  0.75 0.9 0  0.8 0.9 0  0.85 0.9 0  0.9 0.9 0  0.95 0.9 0  1 0.9 0  0 0.95 0  0.05 0.95 0  0.1 0.95 0  0.15 0.95 0  0.2 0.95 0  0.25 0.95 0  0.3 0.95 0  0.35 0.95 0  0.4 0.95 0  0.45 0.95 0  0.5 0.95 0  0.55 0.95 0  0.6 0.95 0  0.65 0.95 0  0.7 0.95 0  0.75 0.95 0  0.8 0.95 0  0.85 0.95 0  0.9 0.95 0  0.95 0.95 0  1 0.95 0  0 1 0  0.05 1 0  0.1 1 0  0.15 1 0  0.2 1 0  0.25 1 0  0.3 1 0  0.35 1 0  0.4 1 0  0.45 1 0  0.5 1 0  0.55 1 0  0.6 1 0  0.65 1 0  0.7 1 0  0.75 1 0  0.8 1 0  0.85 1 0  0.9 1 0  0.95 1 0  1 1 0  </DataArray>
</Points>
<Cells>
[...]
<PointData  Scalars="f_8047"> 
<DataArray  type="Float64"  Name="f_8047"  format="ascii">1.0359913525405208e+01  9.5292067956150461e+00  1.0082114471122233e+01  9.5093532673729104e+00  9.8153911179928954e+00  9.6265518721352556e+00  9.5476550845104420e+00  9.7857797563962503e+00  9.3344123290552581e+00  9.9086014472066761e+00  9.2314925406304660e+00  9.9428588838251564e+00  9.2687991484139527e+00  9.8769176835244430e+00  9.4386977067599656e+00  9.7436157208529632e+00  9.7000599021159672e+00  9.6125465080261012e+00  9.9993842850764025e+00  9.5826920112735490e+00  1.0333875392543822e+01  9.5292067965888929e+00  1.0509013302186592e+01  1.1239118467233935e+01  1.1573625437248468e+01  1.1949836098438324e+01  1.2162925026304121e+01  1.2335581890771156e+01  1.2514042881441654e+01  1.2529339244445715e+01  1.2684304258952684e+01  1.2584429257531323e+01  1.2690386839607124e+01  1.2518127271871966e+01  1.2530247291104454e+01  1.2317010756494849e+01  1.2183833054108222e+01  1.1930387340435201e+01  1.1592667073707753e+01  1.1227544132405271e+01  1.0530025959846038e+01  9.5826920103025302e+00  1.0082114469359308e+01  1.1239118466900493e+01  1.2292923436195746e+01  1.3097942979805318e+01  1.3749650405230264e+01  1.4242427842066091e+01  1.4620762944468742e+01  1.4908841024682744e+01  1.5088159299734293e+01  1.5218548796978682e+01  1.5235242625874436e+01  1.5219790931834051e+01  1.5086562226224583e+01  1.4912181003865971e+01  1.4618180320262640e+01  1.4246828517543303e+01  1.3747041624019165e+01  1.3101711725797758e+01  1.2289078679639729e+01  1.1227544132741386e+01  9.9993842868370972e+00  9.5093532697703367e+00  1.1573625437658581e+01  1.3097942979886284e+01  1.4279164227308849e+01  1.5213055794227367e+01  1.5941985743688678e+01  1.6502618850300273e+01  1.6919464010879437e+01  1.7203435255094284e+01  1.7374294549135467e+01  1.7426081445617143e+01  1.7374733624852116e+01  1.7203591843329153e+01  1.6920672962116825e+01  1.6502959562291100e+01  1.5943679909302954e+01  1.5213687652770911e+01  1.4281421141186836e+01  1.3101711725716189e+01  1.1592667073296770e+01  9.6125465056302861e+00  9.8153911151949877e+00  1.1949836097952661e+01  1.3749650405147838e+01  1.5213055794210661e+01  1.6388375248752403e+01  1.7318227483754718e+01  1.8037870311049037e+01  1.8573546311307009e+01  1.8943117227581613e+01  1.9160830967336580e+01  1.9231900153800545e+01  1.9161144332656473e+01  1.8943605970654783e+01  1.8574418201570793e+01  1.8038751241878646e+01  1.7319439712176123e+01  1.6389347716567350e+01  1.5213687652787725e+01  1.3747041624101820e+01  1.1930387340921586e+01  9.7000599049129868e+00  9.6265518750640666e+00  1.2162925026811916e+01  1.4242427842154452e+01  1.5941985743703579e+01  1.7318227483757806e+01  1.8415626365027684e+01  1.9269640331883092e+01  1.9907571428085436e+01  2.0349429661763931e+01  2.0609347423263966e+01  2.0695053868737446e+01  2.0609630640441111e+01  2.0349959507937218e+01  1.9908359163691390e+01  1.9270584757321540e+01  1.8416745820140637e+01  1.7319439712173036e+01  1.5943679909288063e+01  1.4246828517454956e+01  1.2183833053600498e+01  9.7436157179241967e+00  9.5476550817334456e+00  1.2335581890289133e+01  1.4620762944385129e+01  1.6502618850285689e+01  1.8037870311046593e+01  1.9269640331882570e+01  2.0232670165112065e+01  2.0954408706981933e+01  2.1455560659366622e+01  2.1750640150811666e+01  2.1848120020416840e+01  2.1750891183423629e+01  2.1456044549088784e+01  2.0955103370535099e+01  2.0233519615144971e+01  1.9270584757322048e+01  1.8038751241881069e+01  1.6502959562305620e+01  1.4618180320345989e+01  1.2317010756976192e+01  9.4386977095377542e+00  9.7857797587534385e+00  1.2514042881851200e+01  1.4908841024753899e+01  1.6919464010891783e+01  1.8573546311309162e+01  1.9907571428085792e+01  2.0954408706982012e+01  2.1741049538649712e+01  2.2288294584844500e+01  2.2610857581471734e+01  2.2717475879793810e+01  2.2611061534345257e+01  2.2288689733588019e+01  2.1741612983407453e+01  2.0955103370535017e+01  1.9908359163691024e+01  1.8574418201568641e+01  1.6920672962104597e+01  1.4912181003795288e+01  1.2530247290696167e+01  9.8769176811656969e+00  9.3344123273453654e+00  1.2529339244148137e+01  1.5088159299682500e+01  1.7203435255085257e+01  1.8943117227580036e+01  2.0349429661763644e+01  2.1455560659366579e+01  2.2288294584844483e+01  2.2868374253048469e+01  2.3210565989695429e+01  2.3323698519141345e+01  2.3210709538108532e+01  2.2868652422550898e+01  2.2288689733588036e+01  2.1456044549088826e+01  2.0349959507937474e+01  1.8943605970656296e+01  1.7203591843337986e+01  1.5086562226275706e+01  1.2518127272167828e+01  9.2687991501260214e+00  9.9086014481042604e+00  1.2684304259109572e+01  1.5218548797006099e+01  1.7374294549140249e+01  1.9160830967337407e+01  2.0609347423264101e+01  2.1750640150811684e+01  2.2610857581471727e+01  2.3210565989695414e+01  2.3564506215982512e+01  2.3681528019907706e+01  2.3564580286460050e+01  2.3210709538108535e+01  2.2611061534345275e+01  2.1750891183423619e+01  2.0609630640440962e+01  1.9161144332655674e+01  1.7374733624847536e+01  1.5219790931807406e+01  1.2690386839452250e+01  9.9428588829250035e+00  9.2314925406318054e+00  1.2584429257530262e+01  1.5235242625874024e+01  1.7426081445617026e+01  1.9231900153800510e+01  2.0695053868737432e+01  2.1848120020416836e+01  2.2717475879793810e+01  2.3323698519141356e+01  2.3681528019907702e+01  2.3799820080469665e+01  2.3681528019907713e+01  2.3323698519141363e+01  2.2717475879793824e+01  2.1848120020416847e+01  2.0695053868737439e+01  1.9231900153800510e+01  1.7426081445617022e+01  1.5235242625874024e+01  1.2584429257530271e+01  9.2314925406318409e+00  9.9428588829250213e+00  1.2690386839452250e+01  1.5219790931807399e+01  1.7374733624847533e+01  1.9161144332655681e+01  2.0609630640440962e+01  2.1750891183423590e+01  2.2611061534345250e+01  2.3210709538108535e+01  2.3564580286460050e+01  2.3681528019907706e+01  2.3564506215982519e+01  2.3210565989695422e+01  2.2610857581471748e+01  2.1750640150811709e+01  2.0609347423264115e+01  1.9160830967337418e+01  1.7374294549140249e+01  1.5218548797006088e+01  1.2684304259109568e+01  9.9086014481042142e+00  9.2687991501260196e+00  1.2518127272167822e+01  1.5086562226275706e+01  1.7203591843337986e+01  1.8943605970656300e+01  2.0349959507937474e+01  2.1456044549088819e+01  2.2288689733588019e+01  2.2868652422550888e+01  2.3210709538108532e+01  2.3323698519141356e+01  2.3210565989695414e+01  2.2868374253048493e+01  2.2288294584844508e+01  2.1455560659366590e+01  2.0349429661763658e+01  1.8943117227580039e+01  1.7203435255085260e+01  1.5088159299682498e+01  1.2529339244148140e+01  9.3344123273454134e+00  9.8769176811656791e+00  1.2530247290696163e+01  1.4912181003795290e+01  1.6920672962104600e+01  1.8574418201568651e+01  1.9908359163691024e+01  2.0955103370535010e+01  2.1741612983407450e+01  2.2288689733588008e+01  2.2611061534345257e+01  2.2717475879793817e+01  2.2610857581471738e+01  2.2288294584844511e+01  2.1741049538649730e+01  2.0954408706982019e+01  1.9907571428085788e+01  1.8573546311309158e+01  1.6919464010891776e+01  1.4908841024753894e+01  1.2514042881851186e+01  9.7857797587533870e+00  9.4386977095378057e+00  1.2317010756976188e+01  1.4618180320345981e+01  1.6502959562305609e+01  1.8038751241881066e+01  1.9270584757322037e+01  2.0233519615144960e+01  2.0955103370535078e+01  2.1456044549088769e+01  2.1750891183423622e+01  2.1848120020416836e+01  2.1750640150811662e+01  2.1455560659366625e+01  2.0954408706981937e+01  2.0232670165112062e+01  1.9269640331882567e+01  1.8037870311046579e+01  1.6502618850285671e+01  1.4620762944385120e+01  1.2335581890289140e+01  9.5476550817334989e+00  9.7436157179241150e+00  1.2183833053600473e+01  1.4246828517454940e+01  1.5943679909288045e+01  1.7319439712173018e+01  1.8416745820140616e+01  1.9270584757321519e+01  1.9908359163691362e+01  2.0349959507937193e+01  2.0609630640441086e+01  2.0695053868737428e+01  2.0609347423263959e+01  2.0349429661763928e+01  1.9907571428085426e+01  1.9269640331883082e+01  1.8415626365027670e+01  1.7318227483757791e+01  1.5941985743703567e+01  1.4242427842154445e+01  1.2162925026811905e+01  9.6265518750640204e+00  9.7000599049130898e+00  1.1930387340921587e+01  1.3747041624101811e+01  1.5213687652787709e+01  1.6389347716567340e+01  1.7319439712176109e+01  1.8038751241878625e+01  1.8574418201570765e+01  1.8943605970654758e+01  1.9161144332656452e+01  1.9231900153800524e+01  1.9160830967336572e+01  1.8943117227581602e+01  1.8573546311306995e+01  1.8037870311049023e+01  1.7318227483754704e+01  1.6388375248752389e+01  1.5213055794210653e+01  1.3749650405147834e+01  1.1949836097952664e+01  9.8153911151950268e+00  9.6125465056301795e+00  1.1592667073296745e+01  1.3101711725716186e+01  1.4281421141186835e+01  1.5213687652770904e+01  1.5943679909302936e+01  1.6502959562291078e+01  1.6920672962116804e+01  1.7203591843329146e+01  1.7374733624852112e+01  1.7426081445617129e+01  1.7374294549135456e+01  1.7203435255094266e+01  1.6919464010879420e+01  1.6502618850300252e+01  1.5941985743688662e+01  1.5213055794227357e+01  1.4279164227308843e+01  1.3097942979886279e+01  1.1573625437658578e+01  9.5093532697703118e+00  9.9993842868371949e+00  1.1227544132741397e+01  1.2289078679639729e+01  1.3101711725797751e+01  1.3747041624019161e+01  1.4246828517543296e+01  1.4618180320262624e+01  1.4912181003865953e+01  1.5086562226224576e+01  1.5219790931834050e+01  1.5235242625874431e+01  1.5218548796978681e+01  1.5088159299734285e+01  1.4908841024682737e+01  1.4620762944468728e+01  1.4242427842066084e+01  1.3749650405230261e+01  1.3097942979805318e+01  1.2292923436195743e+01  1.1239118466900493e+01  1.0082114469359304e+01  9.5826920103024573e+00  1.0530025959846007e+01  1.1227544132405278e+01  1.1592667073707743e+01  1.1930387340435216e+01  1.2183833054108213e+01  1.2317010756494852e+01  1.2530247291104452e+01  1.2518127271871970e+01  1.2690386839607125e+01  1.2584429257531333e+01  1.2684304258952684e+01  1.2529339244445717e+01  1.2514042881441652e+01  1.2335581890771145e+01  1.2162925026304128e+01  1.1949836098438309e+01  1.1573625437248477e+01  1.1239118467233933e+01  1.0509013302186606e+01  9.5292067965889036e+00  1.0333875392543881e+01  9.5826920112734868e+00  9.9993842850764700e+00  9.6125465080260408e+00  9.7000599021160241e+00  9.7436157208529171e+00  9.4386977067600100e+00  9.8769176835244128e+00  9.2687991484139953e+00  9.9428588838251208e+00  9.2314925406305015e+00  9.9086014472066388e+00  9.3344123290552794e+00  9.7857797563962521e+00  9.5476550845104189e+00  9.6265518721352947e+00  9.8153911179928439e+00  9.5093532673729637e+00  1.0082114471122171e+01  9.5292067956150870e+00  1.0359913525405187e+01  </DataArray> 
</PointData> 
</Piece>
</UnstructuredGrid>
</VTKFile>