<?xml version="1.0"?>
<VTKFile type="UnstructuredGrid"  version="0.1"  >
<UnstructuredGrid>
<Piece  NumberOfPoints="441" NumberOfCells="800">
<Points>
<DataArray  type="Float64"  NumberOfComponents="3"  format="ascii">0 0 0  0.05 0 0  0.1 0 0  0.15 0 0  0.2 0 0  0.25 0 0  0.3 0 0  0.35 0 0  0.4 0 0  0.45 0 0  0.5 0 0  0.55 0 0  0.6 0 0  0.65 0 0  0.7 0 0  0.75 0 0  0.8 0 0  0.85 0 0  0.9 0 0  0.95 0 0  1 0 0  0 0.05 0  0.05 0.05 0  0.1 0.05 0  0.15 0.05 0  0.2 0.05 0  0.25 0.05 0  0.3 0.05 0  0.35 0.05 0  0.4 0.05 0  0.45 0.05 0  0.5 0.05 0  0.55 0.05 0  0.6 0.05 0  0.65 0.05 0  0.7 0.05 0  0.75 0.05 0  0.8 0.05 0  0.85 0.05 0  0.9 0.05 0  0.95 0.05 0  1 0.05 0  0 0.1 0  0.05 0.1 0  0.1 0.1 0  0.15 0.1 0  0.2 0.1 0  0.25 0.1 0  0.3 0.1 0  0.35 0.1 0  0.4 0.1 0  0.45 0.1 0  0.5 0.1 0  0.55 0.1 0  0.6 0.1 0  0.65 0.1 0  0.7 0.1 0  0.75 0.1 0  0.8 0.1 0  0.85 0.1 0  0.9 0.1 0  0.95 0.1 0  1 0.1 0  0 0.15 0  0.05 0.15 0  0.1 0.15 0  0.15 0.15 0  0.2 0.15 0  0.25 0.15 0  0.3 0.15 0  0.35 0.15 0  0.4 0.15 0  0.45 0.15 0  0.5 0.15 0  0.55 0.15 0  0.6 0.15 0  0.65 0.15 0  0.7 0.15 0  0.75 0.15 0  0.8 0.15 0  0.85 0.15 0  0.9 0.15 0  0.95 0.15 0  1 0.15 0  0 0.2 0  0.05 0.2 0  0.1 0.2 0  0.15 0.2 0  0.2 0.2 0  0.25 0.2 0  0.3 0.2 0  0.35 0.2 0  0.4 0.2 0  0.45 0.2 0  0.5 0.2 0  0.55 0.2 0  0.6 0.2 0  0.65 0.2 0  0.7 0.2 0  0.75 0.2 0  0.8 0.2 0  0.85 0.2 0  0.9 0.2 0  0.95 0.2 0  1 0.2 0  0 0.25 0  0.05 0.25 0  0.1 0.25 0  0.15 0.25 0  0.2 0.25 0  0.25 0.25 0  0.3 0.25 0  0.35 0.25 0  0.4 0.25 0  0.45 0.25 0  0.5 0.25 0  0.55 0.25 0  0.6 0.25 0  0.65 0.25 0  0.7 0.25 0  0.75 0.25 0  0.8 0.25 0  0.85 0.25 0  0.9 0.25 0  0.95 0.25 0  1 0.25 0  0 0.3 0  0.05 0.3 0  0.1 0.3 0  0.15 0.3 0  0.2 0.3 0  0.25 0.3 0  0.3 0.3 0  0.35 0.3 0  0.4 0.3 0  0.45 0.3 0  0.5 0.3 0  0.55 0.3 0  0.6 0.3 0  0.65 0.3 0  0.7 0.3 0  0.75 0.3 0  0.8 0.3 0  0.85 0.3 0  0.9 0.3 0  0.95 0.3 0  1 0.3 0  0 0.35 0  0.05 0.35 0  0.1 0.35 0  0.15 0.35 0  0.2 0.35 0  0.25 0.35 0  0.3 0.35 0  0.35 0.35 0  0.4 0.35 0  0.45 0.35 0  0.5 0.35 0  0.55 0.35 0  0.6 0.35 0  0.65 0.35 0  0.7 0.35 0  0.75 0.35 0  0.8 0.35 0  0.85 0.35 0  0.9 0.35 0  0.95 0.35 0  1 0.35 0  0 0.4 0  0.05 0.4 0  0.1 0.4 0  0.15 0.4 0  0.2 0.4 0  0.25 0.4 0  0.3 0.4 0  0.35 0.4 0  0.4 0.4 0  0.45 0.4 0  0.5 0.4 0  0.55 0.4 0  0.6 0.4 0  0.65 0.4 0  0.7 0.4 0  0.75 0.4 0  0.8 0.4 0  0.85 0.4 0  0.9 0.4 0  0.95 0.4 0  1 0.4 0  0 0.45 0  0.05 0.45 0  0.1 0.45 0  0.15 0.45 0  0.2 0.45 0  0.25 0.45 0  0.3 0.45 0  0.35 0.45 0  0.4 0.45 0  0.45 0.45 0  0.5 0.45 0  0.55 0.45 0  0.6 0.45 0  0.65 0.45 0  0.7 0.45 0  0.75 0.45 0  0.8 0.45 0  0.85 0.45 0  0.9 0.45 0  0.95 0.45 0  1 0.45 0  0 0.5 0  0.05 0.5 0  0.1 0.5 0  0.15 0.5 0  0.2 0.5 0  0.25 0.5 0  0.3 0.5 0  0.35 0.5 0  0.4 0.5 0  0.45 0.5 0  0.5 0.5 0  0.55 0.5 0  0.6 0.5 0  0.65 0.5 0  0.7 0.5 0  0.75 0.5 0  0.8 0.5 0  0.85 0.5 0  0.9 0.5 0  0.95 0.5 0  1 0.5 0  0 0.55 0  0.05 0.55 0  0.1 0.55 0  0.15 0.55 0  0.2 0.55 0  0.25 0.55 0  0.3 0.55 0  0.35 0.55 0  0.4 0.55 0  0.45 0.55 0  0.5 0.55 0  0.55 0.55 0  0.6 0.55 0  0.65 0.55 0  0.7 0.55 0  0.75 0.55 0  0.8 0.55 0  0.85 0.55 0  0.9 0.55 0  0.95 0.55 0  1 0.55 0  0 0.6 0  0.05 0.6 0  0.1 0.6 0  0.15 0.6 0  0.2 0.6 0  0.25 0.6 0  0.3 0.6 0  0.35 0.6 0  0.4 0.6 0  0.45 0.6 0  0.5 0.6 0  0.55 0.6 0  0.6 0.6 0  0.65 0.6 0  0.7 0.6 0  0.75 0.6 0  0.8 0.6 0  0.85 0.6 0  0.9 0.6 0  0.95 0.6 0  1 0.6 0  0 0.65 0  0.05 0.65 0  0.1 0.65 0  0.15 0.65 0  0.2 0.65 0  0.25 0.65 0  0.3 0.65 0  0.35 0.65 0  0.4 0.65 0  0.45 0.65 0  0.5 0.65 0  0.55 0.65 0  0.6 0.65 0  0.65 0.65 0  0.7 0.65 0  0.75 0.65 0  0.8 0.65 0  0.85 0.65 0  0.9 0.65 0  0.95 0.65 0  1 0.65 0  0 0.7 0  0.05 0.7 0  0.1 0.7 0  0.15 0.7 0  0.2 0.7 0  0.25 0.7 0  0.3 0.7 0  0.35 0.7 0  0.4 0.7 0  0.45 0.7 0  0.5 0.7 0  0.55 0.7 0  0.6 0.7 0  0.65 0.7 0  0.7 0.7 0  0.75 0.7 0  0.8 0.7 0  0.85 0.7 0  0.9 0.7 0  0.95 0.7 0  1 0.7 0  0 0.75 0  0.05 0.75 0  0.1 0.75 0  0.15 0.75 0  0.2 0.75 0  0.25 0.75 0  0.3 0.75 0  0.35 0.75 0  0.4 0.75 0  0.45 0.75 0  0.5 0.75 0  0.55 0.75 0  0.6 0.75 0  0.65 0.75 0  0.7 0.75 0  0.75 0.75 0  0.8 0.75 0  0.85 0.75 0  0.9 0.75 0  0.95 0.75 0  1 0.75 0  0 0.8 0  0.05 0.8 0  0.1 0.8 0  0.15 0.8 0  0.2 0.8 0  0.25 0.8 0  0.3 0.8 0  0.35 0.8 0  0.4 0.8 0  0.45 0.8 0  0.5 0.8 0  0.55 0.8 0  0.6 0.8 0  0.65 0.8 0  0.7 0.8 0  0.75 0.8 0  0.8 0.8 0  0.85 0.8 0  0.9 0.8 0  0.95 0.8 0  1 0.8 0  0 0.85 0  0.05 0.85 0  0.1 0.85 0  0.15 0.85 0  0.2 0.85 0  0.25 0.85 0  0.3 0.85 0  0.35 0.85 0  0.4 0.85 0  0.45 0.85 0  0.5 0.85 0  0.55 0.85 0  0.6 0.85 0  0.65 0.85 0  0.7 0.85 0  0.75 0.85 0  0.8 0.85 0  0.85 0.85 0  0.9 0.85 0  0.95 0.85 0  1 0.85 0  0 0.9 0  0.05 0.9 0  0.1 0.9 0  0.15 0.9 0  0.2 0.9 0  0.25 0.9 0  0.3 0.9 0  0.35 0.9 0  0.4 0.9 0  0.45 0.9 0  0.5 0.9 0  0.55 0.9 0  0.6 0.9 0  0.65 0.9 0  0.7 0.9 0  0.75 0.9 0  0.8 0.9 0  0.85 0.9 0  0.9 0.9 0  0.95 0.9 0  1 0.9 0  0 0.95 0  0.05 0.95 0  0.1 0.95 0  0.15 0.95 0  0.2 0.95 0  0.25 0.95 0  0.3 0.95 0  0.35 0.95 0  0.4 0.95 0  0.45 0.95 0  0.5 0.95 0  0.55 0.95 0  0.6 0.95 0  0.65 0.95 0  0.7 0.95 0  0.75 0.95 0  0.8 0.95 0  0.85 0.95 0  0.9 0.95 0  0.95 0.95 0  1 0.95 0  0 1 0  0.05 1 0  0.1 1 0  0.15 1 0  0.2 1 0  0.25 1 0  0.3 1 0  0.35 1 0  0.4 1 0  0.45 1 0  0.5 1 0  0.55 1 0  0.6 1 0  0.65 1 0  0.7 1 0  0.75 1 0  0.8 1 0  0.85 1 0  0.9 1 0  0.95 1 0  1 1 0  </DataArray>
</Points>
<Cells>
[...]
<PointData  Scalars="f_6847"> 
<DataArray  type="Float64"  Name="f_6847"  format="ascii">1.3631207025531317e+01  5.2543555149603467e+00  1.0807285967072879e+01  5.0365521678502967e+00  8.0939998760367882e+00  6.1977587268873782e+00  5.3765113248265530e+00  7.7846240736594057e+00  3.2173084312956108e+00  9.0101050742570621e+00  2.1798478743092136e+00  9.3512257378968986e+00  2.5646273505831889e+00  8.6921647034076699e+00  4.2927097841589106e+00  7.3635486883509715e+00  6.9468844690578875e+00  6.0643396120880775e+00  9.9845310298597703e+00  5.7871542024477494e+00  1.3372132294731760e+01  5.2537020885568300e+00  1.5181587266379646e+01  2.2609050038586368e+01  2.6059161275887757e+01  2.9923764123837934e+01  3.2144902685832271e+01  3.3943931347139902e+01  3.5795953993015580e+01  3.5985314019787054e+01  3.7571560734643789e+01  3.6571422648569651e+01  3.7631062662382448e+01  3.5871723106146739e+01  3.5954340476875430e+01  3.3755525579575718e+01  3.2348913051584418e+01  2.9725951121899861e+01  2.6244599766202327e+01  2.2490507343100369e+01  1.5388932289411875e+01  5.7878057517436723e+00  1.0808468846437352e+01  2.2609273773050230e+01  3.3388224387440303e+01  4.1667379795695354e+01  4.8397107721012176e+01  5.3514308765244003e+01  5.7458517899159567e+01  6.0470132583791276e+01  6.2356624140831215e+01  6.3719601249196849e+01  6.3903422591142913e+01  6.3730073100921381e+01  6.2337056286775322e+01  6.0498117962075050e+01  5.7426303485286752e+01  5.3550756521330769e+01  4.8363523506154948e+01  4.1697679686581353e+01  3.3344021077307957e+01  2.2490281811413592e+01  9.9833496102739012e+00  5.0349435476666038e+00  2.6058886097511802e+01  4.1667325470769391e+01  5.3825221558025170e+01  6.3483229469368410e+01  7.1057011752436793e+01  7.6906045540753780e+01  8.1269817496438179e+01  8.4251856024405981e+01  8.6047220146102134e+01  8.6593020489648381e+01  8.6049170434591971e+01  8.4248714931990335e+01  8.1275146214279218e+01  7.6901153909440978e+01  7.1064578477860280e+01  6.3479948460087151e+01  5.3838755710840601e+01  4.1697734417519129e+01  2.6244875536157988e+01  6.0659471985573106e+00  8.0958772107446766e+00  2.9924089991311657e+01  4.8397163027144700e+01  6.3483240679038197e+01  7.5653953078569103e+01  8.5324917566741192e+01  9.2839355118471317e+01  9.8451809159541227e+01  1.0233437386122593e+02  1.0462503738220495e+02  1.0537291030058165e+02  1.0462550525994511e+02  1.0233409384857363e+02  9.8453164198056086e+01  9.2839099152771979e+01  8.5326898611747794e+01  7.5653301247655094e+01  6.3479937181204704e+01  4.8363468046937193e+01  2.9725624766417134e+01  6.9450076774491967e+00  6.1957935539073024e+00  3.2144561966796417e+01  5.3514249472785629e+01  7.1057001749752061e+01  8.5324915495005641e+01  9.6749943182213045e+01  1.0567532787847027e+02  1.1236443952964915e+02  1.1700959289053436e+02  1.1974647568894095e+02  1.2064891800146194e+02  1.1974667459693464e+02  1.1700978652527904e+02  1.1236506030334745e+02  1.0567585122905720e+02  9.6751198478231217e+01  8.5326900683577918e+01  7.1064588469189786e+01  5.3550815802991252e+01  3.2349253733517919e+01  7.3655138834880463e+00  5.3783746321159764e+00  3.3944254771737072e+01  5.7458573998195192e+01  7.6906055325061743e+01  9.2839356757773018e+01  1.0567532822512676e+02  1.1574839555177471e+02  1.2332193468857915e+02  1.2859405065792896e+02  1.3170335986114858e+02  1.3273062859528758e+02  1.3170349187514196e+02  1.2859428141003920e+02  1.2332233976086239e+02  1.1574886124320292e+02  1.0567585088419089e+02  9.2839097523060772e+01  7.6901144167153547e+01  5.7426247555308301e+01  3.3755202597699672e+01  4.2908459005509823e+00  7.7830424478472677e+00  3.5795679194986540e+01  6.0470084832297246e+01  8.1269809207584231e+01  9.8451807708825868e+01  1.1236443928817435e+02  1.2332193463610916e+02  1.3158189370788728e+02  1.3734242703063816e+02  1.4074343938247006e+02  1.4186791338281850e+02  1.4074353597685203e+02  1.3734261578743187e+02  1.3158219165444618e+02  1.2332233981203019e+02  1.1236506053961811e+02  9.8453165626965728e+01  8.1275154413588169e+01  6.0498165387078338e+01  3.5954614431930999e+01  8.6937474074873133e+00  3.2184557356237065e+00  3.5985513688479124e+01  6.2356658887414795e+01  8.4251862072120119e+01  1.0233437491152232e+02  1.1700959307494539e+02  1.2859405068809497e+02  1.3734242703743215e+02  1.4345155176372253e+02  1.4706133245255097e+02  1.4825534036408888e+02  1.4706139663821492e+02  1.4345167871257073e+02  1.3734261578080717e+02  1.2859428138078923e+02  1.1700978634632639e+02  1.0233409282521521e+02  8.4248709001918456e+01  6.2337021981839648e+01  3.5871524586086352e+01  2.5634785714611752e+00  9.0095028151209924e+00  3.7571455466331130e+01  6.3719582850136902e+01  8.6047216930423147e+01  1.0462503681963621e+02  1.1974647559073310e+02  1.3170335984355577e+02  1.4074343937960313e+02  1.4706133245183187e+02  1.5079636159637215e+02  1.5203209921867639e+02  1.5079639381470665e+02  1.4706139663879691e+02  1.4074353597923701e+02  1.3170349189086539e+02  1.1974667468737010e+02  1.0462550578886544e+02  8.6049173509579759e+01  6.3730090979391761e+01  3.7631166581845356e+01  9.3518297266323778e+00  2.1798469657322124e+00  3.6571423356629644e+01  6.3903422863739983e+01  8.6593020562597331e+01  1.0537291031744770e+02  1.2064891800495543e+02  1.3273062859589643e+02  1.4186791338288117e+02  1.4825534036407612e+02  1.5203209921867474e+02  1.5328173592466231e+02  1.5203209921867477e+02  1.4825534036407620e+02  1.4186791338288126e+02  1.3273062859589652e+02  1.2064891800495552e+02  1.0537291031744769e+02  8.6593020562597331e+01  6.3903422863739976e+01  3.6571423356629687e+01  2.1798469657322985e+00  9.3518297266324844e+00  3.7631166581845342e+01  6.3730090979391747e+01  8.6049173509579759e+01  1.0462550578886550e+02  1.1974667468737005e+02  1.3170349189086525e+02  1.4074353597923681e+02  1.4706139663879682e+02  1.5079639381470659e+02  1.5203209921867639e+02  1.5079636159637224e+02  1.4706133245183196e+02  1.4074343937960327e+02  1.3170335984355586e+02  1.1974647559073317e+02  1.0462503681963621e+02  8.6047216930423104e+01  6.3719582850136867e+01  3.7571455466331145e+01  9.0095028151209373e+00  2.5634785714610677e+00  3.5871524586086309e+01  6.2337021981839648e+01  8.4248709001918442e+01  1.0233409282521521e+02  1.1700978634632636e+02  1.2859428138078914e+02  1.3734261578080705e+02  1.4345167871257061e+02  1.4706139663821486e+02  1.4825534036408888e+02  1.4706133245255097e+02  1.4345155176372270e+02  1.3734242703743226e+02  1.2859405068809508e+02  1.1700959307494539e+02  1.0233437491152230e+02  8.4251862072120119e+01  6.2356658887414760e+01  3.5985513688479145e+01  3.2184557356237353e+00  8.6937474074874110e+00  3.5954614431930999e+01  6.0498165387078345e+01  8.1275154413588169e+01  9.8453165626965742e+01  1.1236506053961810e+02  1.2332233981203012e+02  1.3158219165444609e+02  1.3734261578743175e+02  1.4074353597685206e+02  1.4186791338281847e+02  1.4074343938247009e+02  1.3734242703063822e+02  1.3158189370788736e+02  1.2332193463610921e+02  1.1236443928817434e+02  9.8451807708825854e+01  8.1269809207584146e+01  6.0470084832297211e+01  3.5795679194986533e+01  7.7830424478472660e+00  4.2908459005509041e+00  3.3755202597699629e+01  5.7426247555308279e+01  7.6901144167153518e+01  9.2839097523060730e+01  1.0567585088419087e+02  1.1574886124320281e+02  1.2332233976086223e+02  1.2859428141003912e+02  1.3170349187514191e+02  1.3273062859528753e+02  1.3170335986114856e+02  1.2859405065792896e+02  1.2332193468857912e+02  1.1574839555177473e+02  1.0567532822512676e+02  9.2839356757772975e+01  7.6906055325061686e+01  5.7458573998195128e+01  3.3944254771737079e+01  5.3783746321159587e+00  7.3655138834881004e+00  3.2349253733517898e+01  5.3550815802991202e+01  7.1064588469189744e+01  8.5326900683577875e+01  9.6751198478231132e+01  1.0567585122905702e+02  1.1236506030334726e+02  1.1700978652527887e+02  1.1974667459693450e+02  1.2064891800146185e+02  1.1974647568894093e+02  1.1700959289053435e+02  1.1236443952964908e+02  1.0567532787847020e+02  9.6749943182212945e+01  8.5324915495005570e+01  7.1057001749751990e+01  5.3514249472785593e+01  3.2144561966796431e+01  6.1957935539073414e+00  6.9450076774491798e+00  2.9725624766417088e+01  4.8363468046937179e+01  6.3479937181204690e+01  7.5653301247655051e+01  8.5326898611747708e+01  9.2839099152771837e+01  9.8453164198055902e+01  1.0233409384857347e+02  1.0462550525994496e+02  1.0537291030058152e+02  1.0462503738220487e+02  1.0233437386122581e+02  9.8451809159541085e+01  9.2839355118471175e+01  8.5324917566741064e+01  7.5653953078569032e+01  6.3483240679038161e+01  4.8397163027144671e+01  2.9924089991311654e+01  8.0958772107446091e+00  6.0659471985572981e+00  2.6244875536157966e+01  4.1697734417519129e+01  5.3838755710840601e+01  6.3479948460087122e+01  7.1064578477860223e+01  7.6901153909440907e+01  8.1275146214279090e+01  8.4248714931990222e+01  8.6049170434591900e+01  8.6593020489648268e+01  8.6047220146102006e+01  8.4251856024405896e+01  8.1269817496438066e+01  7.6906045540753638e+01  7.1057011752436722e+01  6.3483229469368354e+01  5.3825221558025163e+01  4.1667325470769370e+01  2.6058886097511820e+01  5.0349435476666935e+00  9.9833496102739350e+00  2.2490281811413581e+01  3.3344021077307964e+01  4.1697679686581345e+01  4.8363523506154941e+01  5.3550756521330733e+01  5.7426303485286702e+01  6.0498117962074943e+01  6.2337056286775237e+01  6.3730073100921288e+01  6.3903422591142828e+01  6.3719601249196756e+01  6.2356624140831144e+01  6.0470132583791219e+01  5.7458517899159482e+01  5.3514308765243953e+01  4.8397107721012148e+01  4.1667379795695339e+01  3.3388224387440289e+01  2.2609273773050226e+01  1.0808468846437250e+01  5.7878057517436359e+00  1.5388932289411848e+01  2.2490507343100401e+01  2.6244599766202317e+01  2.9725951121899922e+01  3.2348913051584404e+01  3.3755525579575767e+01  3.5954340476875409e+01  3.5871723106146760e+01  3.7631062662382440e+01  3.6571422648569659e+01  3.7571560734643789e+01  3.5985314019787033e+01  3.5795953993015587e+01  3.3943931347139852e+01  3.2144902685832299e+01  2.9923764123837902e+01  2.6059161275887814e+01  2.2609050038586350e+01  1.5181587266379717e+01  5.2537020885569179e+00  1.3372132294731806e+01  5.7871542024476810e+00  9.9845310298598680e+00  6.0643396120879478e+00  6.9468844690580331e+00  7.3635486883508072e+00  4.2927097841590838e+00  8.6921647034074994e+00  2.5646273505833350e+00  9.3512257378968080e+00  2.1798478743092553e+00  9.0101050742570887e+00  3.2173084312955189e+00  7.7846240736595593e+00  5.3765113248263736e+00  6.1977587268875833e+00  8.0939998760365803e+00  5.0365521678504956e+00  1.0807285967072685e+01  5.2543555149604861e+00  1.3631207025531218e+01  </DataArray> 
</PointData> 
</Piece>
</UnstructuredGrid>
</VTKFile>