<?xml version="1.0"?>
<VTKFile type="UnstructuredGrid"  version="0.1"  >
<UnstructuredGrid>
<Piece  NumberOfPoints="441" NumberOfCells="800">
<Points>
<DataArray  type="Float64"  NumberOfComponents="3"  format="ascii">0 0 0  0.05 0 0  0.1 0 0  0.15 0 0  0.2 0 0  0.25 0 0  0.3 0 0  0.35 0 0  0.4 0 0  0.45 0 0  0.5 0 0  0.55 0 0  0.6 0 0  0.65 0 0  0.7 0 0  0.75 0 0  0.8 0 0  0.85 0 0  0.9 0 0  0.95 0 0  1 0 0  0 0.05 0  0.05 0.05 0  0.1 0.05 0  0.15 0.05 0  0.2 0.05 0  0.25 0.05 0  0.3 0.05 0  0.35 0.05 0  0.4 0.05 0  0.45 0.05 0  0.5 0.05 0  0.55 0.05 0  0.6 0.05 0  0.65 0.05 0  0.7 0.05 0  0.75 0.05 0  0.8 0.05 0  0.85 0.05 0  0.9 0.05 0  0.95 0.05 0  1 0.05 0  0 0.1 0  0.05 0.1 0  0.1 0.1 0  0.15 0.1 0  0.2 0.1 0  0.25 0.1 0  0.3 0.1 0  0.35 0.1 0  0.4 0.1 0  0.45 0.1 0  0.5 0.1 0  0.55 0.1 0  0.6 0.1 0  0.65 0.1 0  0.7 0.1 0  0.75 0.1 0  0.8 0.1 0  0.85 0.1 0  0.9 0.1 0  0.95 0.1 0  1 0.1 0  0 0.15 0  0.05 0.15 0  0.1 0.15 0  0.15 0.15 0  0.2 0.15 0  0.25 0.15 0  0.3 0.15 0  0.35 0.15 0  0.4 0.15 0  0.45 0.15 0  0.5 0.15 0  0.55 0.15 0  0.6 0.15 0  0.65 0.15 0  0.7 0.15 0  0.75 0.15 0  0.8 0.15 0  0.85 0.15 0  0.9 0.15 0  0.95 0.15 0  1 0.15 0  0 0.2 0  0.05 0.2 0  0.1 0.2 0  0.15 0.2 0  0.2 0.2 0  0.25 0.2 0  0.3 0.2 0  0.35 0.2 0  0.4 0.2 0  0.45 0.2 0  0.5 0.2 0  0.55 0.2 0  0.6 0.2 0  0.65 0.2 0  0.7 0.2 0  0.75 0.2 0  0.8 0.2 0  0.85 0.2 0  0.9 0.2 0  0.95 0.2 0  1 0.2 0  0 0.25 0  0.05 0.25 0  0.1 0.25 0  0.15 0.25 0  0.2 0.25 0  0.25 0.25 0  0.3 0.25 0  0.35 0.25 0  0.4 0.25 0  0.45 0.25 0  0.5 0.25 0  0.55 0.25 0  0.6 0.25 0  0.65 0.25 0  0.7 0.25 0  0.75 0.25 0  0.8 0.25 0  0.85 0.25 0  0.9 0.25 0  0.95 0.25 0  1 0.25 0  0 0.3 0  0.05 0.3 0  0.1 0.3 0  0.15 0.3 0  0.2 0.3 0  0.25 0.3 0  0.3 0.3 0  0.35 0.3 0  0.4 0.3 0  0.45 0.3 0  0.5 0.3 0  0.55 0.3 0  0.6 0.3 0  0.65 0.3 0  0.7 0.3 0  0.75 0.3 0  0.8 0.3 0  0.85 0.3 0  0.9 0.3 0  0.95 0.3 0  1 0.3 0  0 0.35 0  0.05 0.35 0  0.1 0.35 0  0.15 0.35 0  0.2 0.35 0  0.25 0.35 0  0.3 0.35 0  0.35 0.35 0  0.4 0.35 0  0.45 0.35 0  0.5 0.35 0  0.55 0.35 0  0.6 0.35 0  0.65 0.35 0  0.7 0.35 0  0.75 0.35 0  0.8 0.35 0  0.85 0.35 0  0.9 0.35 0  0.95 0.35 0  1 0.35 0  0 0.4 0  0.05 0.4 0  0.1 0.4 0  0.15 0.4 0  0.2 0.4 0  0.25 0.4 0  0.3 0.4 0  0.35 0.4 0  0.4 0.4 0  0.45 0.4 0  0.5 0.4 0  0.55 0.4 0  0.6 0.4 0  0.65 0.4 0  0.7 0.4 0  0.75 0.4 0  0.8 0.4 0  0.85 0.4 0  0.9 0.4 0  0.95 0.4 0  1 0.4 0  0 0.45 0  0.05 0.45 0  0.1 0.45 0  0.15 0.45 0  0.2 0.45 0  0.25 0.45 0  0.3 0.45 0  0.35 0.45 0  0.4 0.45 0  0.45 0.45 0  0.5 0.45 0  0.55 0.45 0  0.6 0.45 0  0.65 0.45 0  0.7 0.45 0  0.75 0.45 0  0.8 0.45 0  0.85 0.45 0  0.9 0.45 0  0.95 0.45 0  1 0.45 0  0 0.5 0  0.05 0.5 0  0.1 0.5 0  0.15 0.5 0  0.2 0.5 0  0.25 0.5 0  0.3 0.5 0  0.35 0.5 0  0.4 0.5 0  0.45 0.5 0  0.5 0.5 0  0.55 0.5 0  0.6 0.5 0  0.65 0.5 0  0.7 0.5 0  0.75 0.5 0  0.8 0.5 0  0.85 0.5 0  0.9 0.5 0  0.95 0.5 0  1 0.5 0  0 0.55 0  0.05 0.55 0  0.1 0.55 0  0.15 0.55 0  0.2 0.55 0  0.25 0.55 0  0.3 0.55 0  0.35 0.55 0  0.4 0.55 0  0.45 0.55 0  0.5 0.55 0  0.55 0.55 0  0.6 0.55 0  0.65 0.55 0  0.7 0.55 0  0.75 0.55 0  0.8 0.55 0  0.85 0.55 0  0.9 0.55 0  0.95 0.55 0  1 0.55 0  0 0.6 0  0.05 0.6 0  0.1 0.6 0  0.15 0.6 0  0.2 0.6 0  0.25 0.6 0  0.3 0.6 0  0.35 0.6 0  0.4 0.6 0  0.45 0.6 0  0.5 0.6 0  0.55 0.6 0  0.6 0.6 0  0.65 0.6 0  0.7 0.6 0  0.75 0.6 0  0.8 0.6 0  0.85 0.6 0  0.9 0.6 0  0.95 0.6 0  1 0.6 0  0 0.65 0  0.05 0.65 0  0.1 0.65 0  0.15 0.65 0  0.2 0.65 0  0.25 0.65 0  0.3 0.65 0  0.35 0.65 0  0.4 0.65 0  0.45 0.65 0  0.5 0.65 0  0.55 0.65 0  0.6 0.65 0  0.65 0.65 0  0.7 0.65 0  0.75 0.65 0  0.8 0.65 0  0.85 0.65 0  0.9 0.65 0  0.95 0.65 0  1 0.65 0  0 0.7 0  0.05 0.7 0  0.1 0.7 0  0.15 0.7 0  0.2 0.7 0  0.25 0.7 0  0.3 0.7 0  0.35 0.7 0  0.4 0.7 0  0.45 0.7 0  0.5 0.7 0  0.55 0.7 0  0.6 0.7 0  0.65 0.7 0  0.7 0.7 0  0.75 0.7 0  0.8 0.7 0  0.85 0.7 0  0.9 0.7 0  0.95 0.7 0  1 0.7 0  0 0.75 0  0.05 0.75 0  0.1 0.75 0  0.15 0.75 0  0.2 0.75 0  0.25 0.75 0  0.3 0.75 0  0.35 0.75 0  0.4 0.75 0  0.45 0.75 0  0.5 0.75 0  0.55 0.75 0  0.6 0.75 0  0.65 0.75 0  0.7 0.75 0  0.75 0.75 0  0.8 0.75 0  0.85 0.75 0  0.9 0.75 0  0.95 0.75 0  1 0.75 0  0 0.8 0  0.05 0.8 0  0.1 0.8 0  0.15 0.8 0  0.2 0.8 0  0.25 0.8 0  0.3 0.8 0  0.35 0.8 0  0.4 0.8 0  0.45 0.8 0  0.5 0.8 0  0.55 0.8 0  0.6 0.8 0  0.65 0.8 0  0.7 0.8 0  0.75 0.8 0  0.8 0.8 0  0.85 0.8 0  0.9 0.8 0  0.95 0.8 0  1 0.8 0  0 0.85 0  0.05 0.85 0  0.1 0.85 0  0.15 0.85 0  0.2 0.85 0  0.25 0.85 0  0.3 0.85 0  0.35 0.85 0  0.4 0.85 0  0.45 0.85 0  0.5 0.85 0  0.55 0.85 0  0.6 0.85 0  0.65 0.85 0  0.7 0.85 0  0.75 0.85 0  0.8 0.85 0  0.85 0.85 0  0.9 0.85 0  0.95 0.85 0  1 0.85 0  0 0.9 0  0.05 0.9 0  0.1 0.9 0  0.15 0.9 0  0.2 0.9 0  0.25 0.9 0  0.3 0.9 0  0.35 0.9 0  0.4 0.9 0  0.45 0.9 0  0.5 0.9 0  0.55 0.9 0  0.6 0.9 0  0.65 0.9 0  0.7 0.9 0  0.75 0.9 0  0.8 0.9 0  0.85 0.9 0  0.9 0.9 0  0.95 0.9 0  1 0.9 0  0 0.95 0  0.05 0.95 0  0.1 0.95 0  0.15 0.95 0  0.2 0.95 0  0.25 0.95 0  0.3 0.95 0  0.35 0.95 0  0.4 0.95 0  0.45 0.95 0  0.5 0.95 0  0.55 0.95 0  0.6 0.95 0  0.65 0.95 0  0.7 0.95 0  0.75 0.95 0  0.8 0.95 0  0.85 0.95 0  0.9 0.95 0  0.95 0.95 0  1 0.95 0  0 1 0  0.05 1 0  0.1 1 0  0.15 1 0  0.2 1 0  0.25 1 0  0.3 1 0  0.35 1 0  0.4 1 0  0.45 1 0  0.5 1 0  0.55 1 0  0.6 1 0  0.65 1 0  0.7 1 0  0.75 1 0  0.8 1 0  0.85 1 0  0.9 1 0  0.95 1 0  1 1 0  </DataArray>
</Points>
<Cells>
[...]
<PointData  Scalars="f_8047"> 
<DataArray  type="Float64"  Name="f_8047"  format="ascii">1.0320017107470939e+01  9.5767112276429724e+00  1.0114680414263287e+01  9.5870821760728884e+00  9.9119749018493355e+00  9.7269133322530017e+00  9.6929133530050837e+00  9.9017889936935344e+00  9.5093635414084670e+00  1.0032479017297392e+01  9.4166664134704305e+00  1.0065906662164293e+01  9.4449319190853984e+00  9.9904079650483197e+00  9.5862689375307788e+00  9.8397997253455944e+00  9.7998875522846305e+00  9.6848428948454846e+00  1.0035769043836380e+01  9.6247225682939899e+00  1.0298274418562778e+01  9.5767112276431892e+00  1.0364078608670289e+01  1.0906611907931021e+01  1.1080343737425041e+01  1.1308233626405279e+01  1.1390283053135668e+01  1.1461136804517368e+01  1.1548000271406311e+01  1.1511786314070854e+01  1.1620359854882899e+01  1.1519224159394719e+01  1.1627062490046525e+01  1.1502173167978277e+01  1.1566137029610466e+01  1.1445954437146698e+01  1.1414487236090041e+01  1.1293859572558974e+01  1.1103364059746893e+01  1.0899946544646811e+01  1.0385666440910203e+01  9.6247225682937128e+00  1.0114680414262885e+01  1.0906611907930943e+01  1.1592919646625168e+01  1.2054290615732329e+01  1.2394416625077422e+01  1.2615401037033664e+01  1.2768358481360162e+01  1.2877000316132744e+01  1.2929889580324300e+01  1.2981564215774764e+01  1.2974866068300331e+01  1.2984007315874448e+01  1.2930763350914800e+01  1.2884067433189774e+01  1.2770915032194612e+01  1.2626093461620671e+01  1.2399267363139009e+01  1.2065695924625773e+01  1.1596290213582714e+01  1.0899946544646909e+01  1.0035769043836877e+01  9.5870821760734231e+00  1.1080343737425132e+01  1.2054290615732347e+01  1.2720956938825211e+01  1.3189240710073678e+01  1.3512183184380188e+01  1.3734200166700646e+01  1.3884011401042615e+01  1.3976380000258882e+01  1.4031555318612673e+01  1.4045627757717227e+01  1.4033441562869536e+01  1.3979466612629844e+01  1.3889674268676416e+01  1.3740533284482003e+01  1.3521265225389417e+01  1.3198329453331034e+01  1.2731915535234213e+01  1.2065695924625750e+01  1.1103364059746776e+01  9.6848428948448078e+00  9.9119749018487155e+00  1.1308233626405167e+01  1.2394416625077401e+01  1.3189240710073669e+01  1.3759076205808366e+01  1.4160561370061197e+01  1.4438915314668522e+01  1.4626770749618045e+01  1.4746109234439276e+01  1.4813182100899592e+01  1.4834501110021474e+01  1.4814973370190630e+01  1.4749577787790447e+01  1.4632149002255392e+01  1.4445800962828447e+01  1.4169113979654416e+01  1.3768329956825319e+01  1.3198329453331034e+01  1.2399267363139030e+01  1.1293859572559100e+01  9.7998875522854210e+00  9.7269133322536518e+00  1.1390283053135771e+01  1.2615401037033676e+01  1.3512183184380184e+01  1.4160561370061190e+01  1.4622248300290106e+01  1.4944875157964679e+01  1.5163761518553017e+01  1.5303882144326082e+01  1.5382113478382166e+01  1.5407588922824393e+01  1.5383757190808787e+01  1.5307146040224966e+01  1.5168660827979773e+01  1.4951256145754561e+01  1.4629951795674716e+01  1.4169113979654417e+01  1.3521265225389412e+01  1.2626093461620650e+01  1.1414487236089899e+01  9.8397997253447738e+00  9.6929133530044602e+00  1.1461136804517256e+01  1.2768358481360139e+01  1.3734200166700631e+01  1.4438915314668513e+01  1.4944875157964672e+01  1.5300803447427210e+01  1.5543512688704407e+01  1.5699529375719301e+01  1.5786673054923948e+01  1.5815063057087377e+01  1.5788073259020274e+01  1.5702315818663166e+01  1.5547652953695714e+01  1.5306178733668625e+01  1.4951256145754552e+01  1.4445800962828443e+01  1.3740533284482007e+01  1.2770915032194637e+01  1.1445954437146831e+01  9.5862689375315604e+00  9.9017889936940620e+00  1.1548000271406398e+01  1.2877000316132753e+01  1.3884011401042606e+01  1.4626770749618034e+01  1.5163761518553013e+01  1.5543512688704409e+01  1.5803516652792565e+01  1.5971140154205552e+01  1.6064865868507638e+01  1.6095312985385185e+01  1.6065955217748169e+01  1.5973304962418924e+01  1.5806717563789956e+01  1.5547652953695708e+01  1.5168660827979759e+01  1.4632149002255382e+01  1.3889674268676410e+01  1.2884067433189752e+01  1.1566137029610362e+01  9.9904079650476625e+00  9.5093635414080886e+00  1.1511786314070786e+01  1.2929889580324282e+01  1.3976380000258871e+01  1.4746109234439265e+01  1.5303882144326074e+01  1.5699529375719298e+01  1.5971140154205546e+01  1.6146583216667246e+01  1.6244746785820137e+01  1.6276528755046655e+01  1.6245487311989262e+01  1.6148052364007409e+01  1.5973304962418927e+01  1.5702315818663166e+01  1.5307146040224957e+01  1.4749577787790445e+01  1.3979466612629848e+01  1.2930763350914816e+01  1.1502173167978368e+01  9.4449319190858887e+00  1.0032479017297586e+01  1.1620359854882931e+01  1.2981564215774762e+01  1.4031555318612664e+01  1.4813182100899583e+01  1.5382113478382161e+01  1.5786673054923941e+01  1.6064865868507635e+01  1.6244746785820130e+01  1.6345404598699599e+01  1.6377879320872523e+01  1.6345778248356634e+01  1.6245487311989262e+01  1.6065955217748183e+01  1.5788073259020287e+01  1.5383757190808778e+01  1.4814973370190627e+01  1.4033441562869539e+01  1.2984007315874445e+01  1.1627062490046482e+01  1.0065906662164025e+01  9.4166664134704448e+00  1.1519224159394719e+01  1.2974866068300324e+01  1.4045627757717218e+01  1.4834501110021463e+01  1.5407588922824388e+01  1.5815063057087368e+01  1.6095312985385178e+01  1.6276528755046652e+01  1.6377879320872520e+01  1.6410454304852607e+01  1.6377879320872523e+01  1.6276528755046662e+01  1.6095312985385192e+01  1.5815063057087384e+01  1.5407588922824393e+01  1.4834501110021465e+01  1.4045627757717224e+01  1.2974866068300328e+01  1.1519224159394726e+01  9.4166664134704590e+00  1.0065906662164069e+01  1.1627062490046486e+01  1.2984007315874440e+01  1.4033441562869532e+01  1.4814973370190621e+01  1.5383757190808781e+01  1.5788073259020265e+01  1.6065955217748161e+01  1.6245487311989255e+01  1.6345778248356634e+01  1.6377879320872523e+01  1.6345404598699606e+01  1.6244746785820151e+01  1.6064865868507653e+01  1.5786673054923956e+01  1.5382113478382166e+01  1.4813182100899587e+01  1.4031555318612661e+01  1.2981564215774767e+01  1.1620359854882937e+01  1.0032479017297600e+01  9.4449319190858159e+00  1.1502173167978345e+01  1.2930763350914809e+01  1.3979466612629846e+01  1.4749577787790441e+01  1.5307146040224955e+01  1.5702315818663157e+01  1.5973304962418917e+01  1.6148052364007402e+01  1.6245487311989255e+01  1.6276528755046659e+01  1.6244746785820148e+01  1.6146583216667263e+01  1.5971140154205560e+01  1.5699529375719308e+01  1.5303882144326074e+01  1.4746109234439260e+01  1.3976380000258860e+01  1.2929889580324273e+01  1.1511786314070772e+01  9.5093635414080389e+00  9.9904079650477620e+00  1.1566137029610372e+01  1.2884067433189754e+01  1.3889674268676409e+01  1.4632149002255382e+01  1.5168660827979762e+01  1.5547652953695705e+01  1.5806717563789952e+01  1.5973304962418919e+01  1.6065955217748165e+01  1.6095312985385185e+01  1.6064865868507649e+01  1.5971140154205564e+01  1.5803516652792570e+01  1.5543512688704405e+01  1.5163761518553006e+01  1.4626770749618027e+01  1.3884011401042594e+01  1.2877000316132747e+01  1.1548000271406407e+01  9.9017889936941419e+00  9.5862689375314432e+00  1.1445954437146806e+01  1.2770915032194623e+01  1.3740533284482003e+01  1.4445800962828438e+01  1.4951256145754551e+01  1.5306178733668613e+01  1.5547652953695700e+01  1.5702315818663152e+01  1.5788073259020265e+01  1.5815063057087370e+01  1.5786673054923947e+01  1.5699529375719305e+01  1.5543512688704400e+01  1.5300803447427201e+01  1.4944875157964665e+01  1.4438915314668506e+01  1.3734200166700624e+01  1.2768358481360124e+01  1.1461136804517233e+01  9.6929133530043625e+00  9.8397997253448928e+00  1.1414487236089910e+01  1.2626093461620641e+01  1.3521265225389401e+01  1.4169113979654403e+01  1.4629951795674707e+01  1.4951256145754540e+01  1.5168660827979750e+01  1.5307146040224943e+01  1.5383757190808767e+01  1.5407588922824385e+01  1.5382113478382159e+01  1.5303882144326082e+01  1.5163761518553008e+01  1.4944875157964665e+01  1.4622248300290092e+01  1.4160561370061181e+01  1.3512183184380179e+01  1.2615401037033676e+01  1.1390283053135795e+01  9.7269133322537709e+00  9.7998875522853020e+00  1.1293859572559072e+01  1.2399267363139018e+01  1.3198329453331031e+01  1.3768329956825310e+01  1.4169113979654409e+01  1.4445800962828432e+01  1.4632149002255369e+01  1.4749577787790427e+01  1.4814973370190609e+01  1.4834501110021458e+01  1.4813182100899587e+01  1.4746109234439269e+01  1.4626770749618034e+01  1.4438915314668503e+01  1.4160561370061178e+01  1.3759076205808356e+01  1.3189240710073667e+01  1.2394416625077401e+01  1.1308233626405148e+01  9.9119749018485894e+00  9.6848428948449126e+00  1.1103364059746788e+01  1.2065695924625750e+01  1.2731915535234217e+01  1.3198329453331027e+01  1.3521265225389410e+01  1.3740533284481998e+01  1.3889674268676405e+01  1.3979466612629835e+01  1.4033441562869530e+01  1.4045627757717217e+01  1.4031555318612662e+01  1.3976380000258873e+01  1.3884011401042603e+01  1.3734200166700631e+01  1.3512183184380174e+01  1.3189240710073669e+01  1.2720956938825209e+01  1.2054290615732352e+01  1.1080343737425151e+01  9.5870821760735438e+00  1.0035769043836789e+01  1.0899946544646895e+01  1.1596290213582709e+01  1.2065695924625775e+01  1.2399267363139002e+01  1.2626093461620675e+01  1.2770915032194608e+01  1.2884067433189770e+01  1.2930763350914793e+01  1.2984007315874447e+01  1.2974866068300333e+01  1.2981564215774762e+01  1.2929889580324296e+01  1.2877000316132735e+01  1.2768358481360156e+01  1.2615401037033656e+01  1.2394416625077426e+01  1.2054290615732327e+01  1.1592919646625173e+01  1.0906611907930927e+01  1.0114680414262782e+01  9.6247225682937820e+00  1.0385666440910232e+01  1.0899946544646799e+01  1.1103364059746909e+01  1.1293859572558945e+01  1.1414487236090059e+01  1.1445954437146689e+01  1.1566137029610484e+01  1.1502173167978279e+01  1.1627062490046525e+01  1.1519224159394739e+01  1.1620359854882883e+01  1.1511786314070871e+01  1.1548000271406288e+01  1.1461136804517384e+01  1.1390283053135651e+01  1.1308233626405300e+01  1.1080343737425038e+01  1.0906611907931032e+01  1.0364078608670310e+01  9.5767112276432602e+00  1.0298274418562720e+01  9.6247225682940520e+00  1.0035769043836295e+01  9.6848428948455823e+00  9.7998875522845346e+00  9.8397997253456850e+00  9.5862689375307149e+00  9.9904079650483624e+00  9.4449319190854002e+00  1.0065906662164261e+01  9.4166664134705069e+00  1.0032479017297284e+01  9.5093635414085877e+00  9.9017889936934207e+00  9.6929133530051885e+00  9.7269133322529040e+00  9.9119749018494190e+00  9.5870821760728226e+00  1.0114680414263312e+01  9.5767112276429689e+00  1.0320017107470912e+01  </DataArray> 
</PointData> 
</Piece>
</UnstructuredGrid>
</VTKFile>