<?xml version="1.0"?>
<VTKFile type="UnstructuredGrid"  version="0.1"  >
<UnstructuredGrid>
<Piece  NumberOfPoints="441" NumberOfCells="800">
<Points>
<DataArray  type="Float64"  NumberOfComponents="3"  format="ascii">0 0 0  0.05 0 0  0.1 0 0  0.15 0 0  0.2 0 0  0.25 0 0  0.3 0 0  0.35 0 0  0.4 0 0  0.45 0 0  0.5 0 0  0.55 0 0  0.6 0 0  0.65 0 0  0.7 0 0  0.75 0 0  0.8 0 0  0.85 0 0  0.9 0 0  0.95 0 0  1 0 0  0 0.05 0  0.05 0.05 0  0.1 0.05 0  0.15 0.05 0  0.2 0.05 0  0.25 0.05 0  0.3 0.05 0  0.35 0.05 0  0.4 0.05 0  0.45 0.05 0  0.5 0.05 0  0.55 0.05 0  0.6 0.05 0  0.65 0.05 0  0.7 0.05 0  0.75 0.05 0  0.8 0.05 0  0.85 0.05 0  0.9 0.05 0  0.95 0.05 0  1 0.05 0  0 0.1 0  0.05 0.1 0  0.1 0.1 0  0.15 0.1 0  0.2 0.1 0  0.25 0.1 0  0.3 0.1 0  0.35 0.1 0  0.4 0.1 0  0.45 0.1 0  0.5 0.1 0  0.55 0.1 0  0.6 0.1 0  0.65 0.1 0  0.7 0.1 0  0.75 0.1 0  0.8 0.1 0  0.85 0.1 0  0.9 0.1 0  0.95 0.1 0  1 0.1 0  0 0.15 0  0.05 0.15 0  0.1 0.15 0  0.15 0.15 0  0.2 0.15 0  0.25 0.15 0  0.3 0.15 0  0.35 0.15 0  0.4 0.15 0  0.45 0.15 0  0.5 0.15 0  0.55 0.15 0  0.6 0.15 0  0.65 0.15 0  0.7 0.15 0  0.75 0.15 0  0.8 0.15 0  0.85 0.15 0  0.9 0.15 0  0.95 0.15 0  1 0.15 0  0 0.2 0  0.05 0.2 0  0.1 0.2 0  0.15 0.2 0  0.2 0.2 0  0.25 0.2 0  0.3 0.2 0  0.35 0.2 0  0.4 0.2 0  0.45 0.2 0  0.5 0.2 0  0.55 0.2 0  0.6 0.2 0  0.65 0.2 0  0.7 0.2 0  0.75 0.2 0  0.8 0.2 0  0.85 0.2 0  0.9 0.2 0  0.95 0.2 0  1 0.2 0  0 0.25 0  0.05 0.25 0  0.1 0.25 0  0.15 0.25 0  0.2 0.25 0  0.25 0.25 0  0.3 0.25 0  0.35 0.25 0  0.4 0.25 0  0.45 0.25 0  0.5 0.25 0  0.55 0.25 0  0.6 0.25 0  0.65 0.25 0  0.7 0.25 0  0.75 0.25 0  0.8 0.25 0  0.85 0.25 0  0.9 0.25 0  0.95 0.25 0  1 0.25 0  0 0.3 0  0.05 0.3 0  0.1 0.3 0  0.15 0.3 0  0.2 0.3 0  0.25 0.3 0  0.3 0.3 0  0.35 0.3 0  0.4 0.3 0  0.45 0.3 0  0.5 0.3 0  0.55 0.3 0  0.6 0.3 0  0.65 0.3 0  0.7 0.3 0  0.75 0.3 0  0.8 0.3 0  0.85 0.3 0  0.9 0.3 0  0.95 0.3 0  1 0.3 0  0 0.35 0  0.05 0.35 0  0.1 0.35 0  0.15 0.35 0  0.2 0.35 0  0.25 0.35 0  0.3 0.35 0  0.35 0.35 0  0.4 0.35 0  0.45 0.35 0  0.5 0.35 0  0.55 0.35 0  0.6 0.35 0  0.65 0.35 0  0.7 0.35 0  0.75 0.35 0  0.8 0.35 0  0.85 0.35 0  0.9 0.35 0  0.95 0.35 0  1 0.35 0  0 0.4 0  0.05 0.4 0  0.1 0.4 0  0.15 0.4 0  0.2 0.4 0  0.25 0.4 0  0.3 0.4 0  0.35 0.4 0  0.4 0.4 0  0.45 0.4 0  0.5 0.4 0  0.55 0.4 0  0.6 0.4 0  0.65 0.4 0  0.7 0.4 0  0.75 0.4 0  0.8 0.4 0  0.85 0.4 0  0.9 0.4 0  0.95 0.4 0  1 0.4 0  0 0.45 0  0.05 0.45 0  0.1 0.45 0  0.15 0.45 0  0.2 0.45 0  0.25 0.45 0  0.3 0.45 0  0.35 0.45 0  0.4 0.45 0  0.45 0.45 0  0.5 0.45 0  0.55 0.45 0  0.6 0.45 0  0.65 0.45 0  0.7 0.45 0  0.75 0.45 0  0.8 0.45 0  0.85 0.45 0  0.9 0.45 0  0.95 0.45 0  1 0.45 0  0 0.5 0  0.05 0.5 0  0.1 0.5 0  0.15 0.5 0  0.2 0.5 0  0.25 0.5 0  0.3 0.5 0  0.35 0.5 0  0.4 0.5 0  0.45 0.5 0  0.5 0.5 0  0.55 0.5 0  0.6 0.5 0  0.65 0.5 0  0.7 0.5 0  0.75 0.5 0  0.8 0.5 0  0.85 0.5 0  0.9 0.5 0  0.95 0.5 0  1 0.5 0  0 0.55 0  0.05 0.55 0  0.1 0.55 0  0.15 0.55 0  0.2 0.55 0  0.25 0.55 0  0.3 0.55 0  0.35 0.55 0  0.4 0.55 0  0.45 0.55 0  0.5 0.55 0  0.55 0.55 0  0.6 0.55 0  0.65 0.55 0  0.7 0.55 0  0.75 0.55 0  0.8 0.55 0  0.85 0.55 0  0.9 0.55 0  0.95 0.55 0  1 0.55 0  0 0.6 0  0.05 0.6 0  0.1 0.6 0  0.15 0.6 0  0.2 0.6 0  0.25 0.6 0  0.3 0.6 0  0.35 0.6 0  0.4 0.6 0  0.45 0.6 0  0.5 0.6 0  0.55 0.6 0  0.6 0.6 0  0.65 0.6 0  0.7 0.6 0  0.75 0.6 0  0.8 0.6 0  0.85 0.6 0  0.9 0.6 0  0.95 0.6 0  1 0.6 0  0 0.65 0  0.05 0.65 0  0.1 0.65 0  0.15 0.65 0  0.2 0.65 0  0.25 0.65 0  0.3 0.65 0  0.35 0.65 0  0.4 0.65 0  0.45 0.65 0  0.5 0.65 0  0.55 0.65 0  0.6 0.65 0  0.65 0.65 0  0.7 0.65 0  0.75 0.65 0  0.8 0.65 0  0.85 0.65 0  0.9 0.65 0  0.95 0.65 0  1 0.65 0  0 0.7 0  0.05 0.7 0  0.1 0.7 0  0.15 0.7 0  0.2 0.7 0  0.25 0.7 0  0.3 0.7 0  0.35 0.7 0  0.4 0.7 0  0.45 0.7 0  0.5 0.7 0  0.55 0.7 0  0.6 0.7 0  0.65 0.7 0  0.7 0.7 0  0.75 0.7 0  0.8 0.7 0  0.85 0.7 0  0.9 0.7 0  0.95 0.7 0  1 0.7 0  0 0.75 0  0.05 0.75 0  0.1 0.75 0  0.15 0.75 0  0.2 0.75 0  0.25 0.75 0  0.3 0.75 0  0.35 0.75 0  0.4 0.75 0  0.45 0.75 0  0.5 0.75 0  0.55 0.75 0  0.6 0.75 0  0.65 0.75 0  0.7 0.75 0  0.75 0.75 0  0.8 0.75 0  0.85 0.75 0  0.9 0.75 0  0.95 0.75 0  1 0.75 0  0 0.8 0  0.05 0.8 0  0.1 0.8 0  0.15 0.8 0  0.2 0.8 0  0.25 0.8 0  0.3 0.8 0  0.35 0.8 0  0.4 0.8 0  0.45 0.8 0  0.5 0.8 0  0.55 0.8 0  0.6 0.8 0  0.65 0.8 0  0.7 0.8 0  0.75 0.8 0  0.8 0.8 0  0.85 0.8 0  0.9 0.8 0  0.95 0.8 0  1 0.8 0  0 0.85 0  0.05 0.85 0  0.1 0.85 0  0.15 0.85 0  0.2 0.85 0  0.25 0.85 0  0.3 0.85 0  0.35 0.85 0  0.4 0.85 0  0.45 0.85 0  0.5 0.85 0  0.55 0.85 0  0.6 0.85 0  0.65 0.85 0  0.7 0.85 0  0.75 0.85 0  0.8 0.85 0  0.85 0.85 0  0.9 0.85 0  0.95 0.85 0  1 0.85 0  0 0.9 0  0.05 0.9 0  0.1 0.9 0  0.15 0.9 0  0.2 0.9 0  0.25 0.9 0  0.3 0.9 0  0.35 0.9 0  0.4 0.9 0  0.45 0.9 0  0.5 0.9 0  0.55 0.9 0  0.6 0.9 0  0.65 0.9 0  0.7 0.9 0  0.75 0.9 0  0.8 0.9 0  0.85 0.9 0  0.9 0.9 0  0.95 0.9 0  1 0.9 0  0 0.95 0  0.05 0.95 0  0.1 0.95 0  0.15 0.95 0  0.2 0.95 0  0.25 0.95 0  0.3 0.95 0  0.35 0.95 0  0.4 0.95 0  0.45 0.95 0  0.5 0.95 0  0.55 0.95 0  0.6 0.95 0  0.65 0.95 0  0.7 0.95 0  0.75 0.95 0  0.8 0.95 0  0.85 0.95 0  0.9 0.95 0  0.95 0.95 0  1 0.95 0  0 1 0  0.05 1 0  0.1 1 0  0.15 1 0  0.2 1 0  0.25 1 0  0.3 1 0  0.35 1 0  0.4 1 0  0.45 1 0  0.5 1 0  0.55 1 0  0.6 1 0  0.65 1 0  0.7 1 0  0.75 1 0  0.8 1 0  0.85 1 0  0.9 1 0  0.95 1 0  1 1 0  </DataArray>
</Points>
<Cells>
[...]
<PointData  Scalars="f_6847"> 
<DataArray  type="Float64"  Name="f_6847"  format="ascii">1.3631036725568784e+01  5.2542724895007744e+00  1.0807872357884033e+01  5.0361573429670230e+00  8.0951318775492744e+00  6.1972665474721715e+00  5.3778503432547451e+00  7.7843269015770895e+00  3.2184792324135332e+00  9.0102470085739714e+00  2.1805647609932715e+00  9.3518983484359239e+00  2.5647843752196051e+00  8.6932597816331523e+00  4.2924022464153442e+00  7.3647862387698915e+00  6.9463559718782228e+00  6.0653611769116615e+00  9.9840682192838290e+00  5.7876478770832334e+00  1.3371955009454528e+01  5.2541890865021852e+00  1.5181101665640593e+01  2.2607990213220742e+01  2.6057327405786779e+01  2.9921646582263413e+01  3.2142016938261918e+01  3.3940948769504367e+01  3.5792354096259459e+01  3.5981726563128142e+01  3.7567646740297221e+01  3.6567561984795041e+01  3.7627246402945488e+01  3.5867970855380207e+01  3.5950997944429218e+01  3.3752277103998225e+01  3.2346349683976072e+01  2.9723568507379337e+01  2.6243031224008782e+01  2.2489267626503143e+01  1.5388461494090391e+01  5.7877310404888531e+00  1.0808023339976948e+01  2.2608018770568705e+01  3.3385787242424847e+01  4.1663703357815535e+01  4.8392349643414896e+01  5.3508495159427341e+01  5.7451900163344590e+01  6.0462775091306753e+01  6.2348806941453333e+01  6.3711447282729473e+01  6.3895187081813106e+01  6.3721945241618869e+01  6.2329228303378265e+01  6.0490830553948747e+01  5.7419671183160581e+01  5.3545034545375970e+01  4.8358757290801002e+01  4.1694089821987056e+01  3.3341614536598215e+01  2.2489238839758599e+01  9.9839174235161998e+00  5.0359520195423988e+00  2.6057292282165243e+01  4.1663696423810890e+01  5.3819733428893088e+01  6.3476051849511435e+01  7.1048314342753812e+01  7.6896067953515569e+01  8.1258794911107827e+01  8.4240083893235905e+01  8.6034983242774587e+01  8.6580636709307626e+01  8.6036949256236170e+01  8.4236962675401728e+01  8.1264166777166864e+01  7.6891212039051780e+01  7.1055939637375090e+01  6.3472812176111347e+01  5.3833315650881374e+01  4.1694096807814830e+01  2.6243066423139272e+01  6.0655663683936236e+00  8.0953714995528312e+00  2.9921688175814428e+01  4.8392356702660230e+01  6.3476053280307710e+01  7.5644553549587442e+01  8.5313539477003587e+01  9.2826289994957520e+01  9.8437384939139761e+01  1.0231895850331249e+02  1.0460901849543113e+02  1.0535669424697288e+02  1.0460950104794968e+02  1.0231870511840913e+02  9.8438780447845588e+01  9.2826080887634632e+01  8.5315576312432498e+01  7.5643956952285265e+01  6.3472810736480795e+01  4.8358750212015948e+01  2.9723526851539109e+01  6.9461164191954445e+00  6.1970157138382724e+00  3.2141973449065389e+01  5.3508487591369473e+01  7.1048313066016448e+01  8.5313539212568344e+01  9.6736170980739629e+01  1.0565951014980685e+02  1.1234697646847168e+02  1.1699092689073939e+02  1.1972707833833003e+02  1.2062927974999246e+02  1.1972729135995742e+02  1.1699114756779559e+02  1.1234763610912511e+02  1.0566008071885143e+02  9.6737479208133934e+01  8.5315576576879806e+01  7.1055940912663075e+01  5.3545042112055597e+01  3.2346393168436897e+01  7.3650370752319976e+00  5.3780881748060789e+00  3.3940990051247915e+01  5.7451907323795652e+01  7.6896069202379422e+01  9.2826290204197093e+01  1.0565951019405387e+02  1.1573022652539639e+02  1.2330187441082231e+02  1.2857260660311391e+02  1.3168107405062565e+02  1.3270806418385985e+02  1.3168121875511483e+02  1.2857286188817903e+02  1.2330231438609790e+02  1.1573073499238798e+02  1.0566008067483288e+02  9.2826080679619153e+01  7.6891210795551430e+01  5.7419664044287885e+01  3.3752235878763372e+01  4.2921643413029615e+00  7.7841250236996853e+00  3.5792319021185193e+01  6.0462768996331448e+01  8.1258793853122882e+01  9.8437384753971145e+01  1.1234697643764994e+02  1.2330187440412504e+02  1.3155974362908123e+02  1.3731874717340654e+02  1.4071882820455355e+02  1.4184299268146543e+02  1.4071893515862942e+02  1.3731895598113118e+02  1.3156007001736350e+02  1.2330231439262897e+02  1.1234763613928259e+02  9.8438780630230809e+01  8.1264167823722303e+01  6.0490836607250927e+01  3.5951032911906807e+01  8.6934617971400581e+00  3.2186256737277419e+00  3.5981752048733789e+01  6.2348811376488769e+01  8.4240084665162897e+01  1.0231895863737169e+02  1.1699092691427748e+02  1.2857260660696426e+02  1.3731874717427365e+02  1.4342623460540949e+02  1.4703501769149392e+02  1.4822869275123173e+02  1.4703508918883992e+02  1.4342637570693856e+02  1.3731895598028566e+02  1.2857286188444559e+02  1.1699114754495412e+02  1.0231870498778817e+02  8.4236961918490536e+01  6.2329223924714519e+01  3.5867945516385298e+01  2.5646377456635125e+00  9.0101701365381643e+00  3.7567633303905794e+01  6.3711444934283215e+01  8.6034982832326946e+01  1.0460901842362509e+02  1.1972707832579475e+02  1.3168107404838008e+02  1.4071882820418762e+02  1.4703501769140212e+02  1.5076900799766088e+02  1.5200439769492107e+02  1.5076904399362627e+02  1.4703508918891421e+02  1.4071893515893396e+02  1.3168121875712174e+02  1.1972729137150048e+02  1.0460950111546077e+02  8.6036949648725965e+01  6.3721947523617310e+01  3.7627259667170478e+01  9.3519754412368457e+00  2.1805646450229994e+00  3.6567562075171423e+01  6.3895187116607197e+01  8.6580636718618749e+01  1.0535669424912560e+02  1.2062927975043830e+02  1.3270806418393752e+02  1.4184299268147339e+02  1.4822869275123011e+02  1.5200439769492084e+02  1.5325368011399163e+02  1.5200439769492087e+02  1.4822869275123020e+02  1.4184299268147353e+02  1.3270806418393764e+02  1.2062927975043839e+02  1.0535669424912561e+02  8.6580636718618749e+01  6.3895187116607197e+01  3.6567562075171459e+01  2.1805646450230158e+00  9.3519754412368776e+00  3.7627259667170449e+01  6.3721947523617310e+01  8.6036949648725937e+01  1.0460950111546073e+02  1.1972729137150041e+02  1.3168121875712163e+02  1.4071893515893370e+02  1.4703508918891418e+02  1.5076904399362624e+02  1.5200439769492110e+02  1.5076900799766094e+02  1.4703501769140220e+02  1.4071882820418773e+02  1.3168107404838017e+02  1.1972707832579485e+02  1.0460901842362514e+02  8.6034982832326975e+01  6.3711444934283207e+01  3.7567633303905808e+01  9.0101701365381572e+00  2.5646377456634788e+00  3.5867945516385269e+01  6.2329223924714519e+01  8.4236961918490508e+01  1.0231870498778815e+02  1.1699114754495405e+02  1.2857286188444547e+02  1.3731895598028547e+02  1.4342637570693844e+02  1.4703508918883992e+02  1.4822869275123179e+02  1.4703501769149395e+02  1.4342623460540958e+02  1.3731874717427374e+02  1.2857260660696431e+02  1.1699092691427755e+02  1.0231895863737172e+02  8.4240084665162868e+01  6.2348811376488719e+01  3.5981752048733789e+01  3.2186256737277259e+00  8.6934617971400847e+00  3.5951032911906793e+01  6.0490836607250934e+01  8.1264167823722261e+01  9.8438780630230781e+01  1.1234763613928249e+02  1.2330231439262883e+02  1.3156007001736333e+02  1.3731895598113107e+02  1.4071893515862936e+02  1.4184299268146543e+02  1.4071882820455357e+02  1.3731874717340654e+02  1.3155974362908128e+02  1.2330187440412509e+02  1.1234697643764994e+02  9.8437384753971145e+01  8.1258793853122825e+01  6.0462768996331384e+01  3.5792319021185186e+01  7.7841250236997332e+00  4.2921643413029864e+00  3.3752235878763337e+01  5.7419664044287849e+01  7.6891210795551345e+01  9.2826080679619096e+01  1.0566008067483280e+02  1.1573073499238787e+02  1.2330231438609775e+02  1.2857286188817889e+02  1.3168121875511463e+02  1.3270806418385976e+02  1.3168107405062560e+02  1.2857260660311391e+02  1.2330187441082234e+02  1.1573022652539642e+02  1.0565951019405384e+02  9.2826290204197051e+01  7.6896069202379337e+01  5.7451907323795588e+01  3.3940990051247908e+01  5.3780881748060168e+00  7.3650370752319354e+00  3.2346393168436840e+01  5.3545042112055519e+01  7.1055940912662976e+01  8.5315576576879707e+01  9.6737479208133792e+01  1.0566008071885125e+02  1.1234763610912491e+02  1.1699114756779539e+02  1.1972729135995718e+02  1.2062927974999232e+02  1.1972707833832990e+02  1.1699092689073940e+02  1.1234697646847165e+02  1.0565951014980681e+02  9.6736170980739573e+01  8.5313539212568273e+01  7.1048313066016405e+01  5.3508487591369438e+01  3.2141973449065411e+01  6.1970157138383453e+00  6.9461164191955422e+00  2.9723526851539070e+01  4.8358750212015913e+01  6.3472810736480746e+01  7.5643956952285180e+01  8.5315576312432370e+01  9.2826080887634475e+01  9.8438780447845389e+01  1.0231870511840896e+02  1.0460950104794952e+02  1.0535669424697271e+02  1.0460901849543103e+02  1.0231895850331243e+02  9.8437384939139690e+01  9.2826289994957449e+01  8.5313539477003516e+01  7.5644553549587386e+01  6.3476053280307674e+01  4.8392356702660209e+01  2.9921688175814410e+01  8.0953714995527388e+00  6.0655663683935197e+00  2.6243066423139226e+01  4.1694096807814823e+01  5.3833315650881353e+01  6.3472812176111304e+01  7.1055939637374991e+01  7.6891212039051709e+01  8.1264166777166736e+01  8.4236962675401656e+01  8.6036949256236099e+01  8.6580636709307484e+01  8.6034983242774459e+01  8.4240083893235834e+01  8.1258794911107742e+01  7.6896067953515484e+01  7.1048314342753770e+01  6.3476051849511379e+01  5.3819733428893073e+01  4.1663696423810855e+01  2.6057292282165264e+01  5.0359520195425027e+00  9.9839174235162975e+00  2.2489238839758592e+01  3.3341614536598215e+01  4.1694089821987042e+01  4.8358757290800980e+01  5.3545034545375934e+01  5.7419671183160538e+01  6.0490830553948662e+01  6.2329228303378194e+01  6.3721945241618805e+01  6.3895187081813020e+01  6.3711447282729452e+01  6.2348806941453290e+01  6.0462775091306710e+01  5.7451900163344533e+01  5.3508495159427291e+01  4.8392349643414860e+01  4.1663703357815507e+01  3.3385787242424833e+01  2.2608018770568698e+01  1.0808023339976847e+01  5.7877310404887785e+00  1.5388461494090361e+01  2.2489267626503164e+01  2.6243031224008785e+01  2.9723568507379358e+01  3.2346349683976079e+01  3.3752277103998253e+01  3.5950997944429204e+01  3.5867970855380236e+01  3.7627246402945488e+01  3.6567561984795070e+01  3.7567646740297256e+01  3.5981726563128156e+01  3.5792354096259473e+01  3.3940948769504352e+01  3.2142016938261939e+01  2.9921646582263378e+01  2.6057327405786815e+01  2.2607990213220731e+01  1.5181101665640645e+01  5.2541890865022616e+00  1.3371955009454584e+01  5.7876478770831712e+00  9.9840682192839019e+00  6.0653611769115789e+00  6.9463559718783081e+00  7.3647862387698080e+00  4.2924022464154366e+00  8.6932597816330581e+00  2.5647843752197099e+00  9.3518983484358316e+00  2.1805647609933323e+00  9.0102470085739501e+00  3.2184792324135016e+00  7.7843269015771765e+00  5.3778503432546314e+00  6.1972665474723065e+00  8.0951318775491252e+00  5.0361573429671651e+00  1.0807872357883909e+01  5.2542724895008659e+00  1.3631036725568716e+01  </DataArray> 
</PointData> 
</Piece>
</UnstructuredGrid>
</VTKFile>