<?xml version="1.0"?>
<VTKFile type="UnstructuredGrid"  version="0.1"  >
<UnstructuredGrid>
<Piece  NumberOfPoints="441" NumberOfCells="800">
<Points>
<DataArray  type="Float64"  NumberOfComponents="3"  format="ascii">0 0 0  0.05 0 0  0.1 0 0  0.15 0 0  0.2 0 0  0.25 0 0  0.3 0 0  0.35 0 0  0.4 0 0  0.45 0 0  0.5 0 0  0.55 0 0  0.6 0 0  0.65 0 0  0.7 0 0  0.75 0 0  0.8 0 0  0.85 0 0  0.9 0 0  0.95 0 0  1 0 0  0 0.05 0  0.05 0.05 0  0.1 0.05 0  0.15 0.05 0  0.2 0.05 0  0.25 0.05 0  0.3 0.05 0  0.35 0.05 0  0.4 0.05 0  0.45 0.05 0  0.5 0.05 0  0.55 0.05 0  0.6 0.05 0  0.65 0.05 0  0.7 0.05 0  0.75 0.05 0  0.8 0.05 0  0.85 0.05 0  0.9 0.05 0  0.95 0.05 0  1 0.05 0  0 0.1 0  0.05 0.1 0  0.1 0.1 0  0.15 0.1 0  0.2 0.1 0  0.25 0.1 0  0.3 0.1 0  0.35 0.1 0  0.4 0.1 0  0.45 0.1 0  0.5 0.1 0  0.55 0.1 0  0.6 0.1 0  0.65 0.1 0  0.7 0.1 0  0.75 0.1 0  0.8 0.1 0  0.85 0.1 0  0.9 0.1 0  0.95 0.1 0  1 0.1 0  0 0.15 0  0.05 0.15 0  0.1 0.15 0  0.15 0.15 0  0.2 0.15 0  0.25 0.15 0  0.3 0.15 0  0.35 0.15 0  0.4 0.15 0  0.45 0.15 0  0.5 0.15 0  0.55 0.15 0  0.6 0.15 0  0.65 0.15 0  0.7 0.15 0  0.75 0.15 0  0.8 0.15 0  0.85 0.15 0  0.9 0.15 0  0.95 0.15 0  1 0.15 0  0 0.2 0  0.05 0.2 0  0.1 0.2 0  0.15 0.2 0  0.2 0.2 0  0.25 0.2 0  0.3 0.2 0  0.35 0.2 0  0.4 0.2 0  0.45 0.2 0  0.5 0.2 0  0.55 0.2 0  0.6 0.2 0  0.65 0.2 0  0.7 0.2 0  0.75 0.2 0  0.8 0.2 0  0.85 0.2 0  0.9 0.2 0  0.95 0.2 0  1 0.2 0  0 0.25 0  0.05 0.25 0  0.1 0.25 0  0.15 0.25 0  0.2 0.25 0  0.25 0.25 0  0.3 0.25 0  0.35 0.25 0  0.4 0.25 0  0.45 0.25 0  0.5 0.25 0  0.55 0.25 0  0.6 0.25 0  0.65 0.25 0  0.7 0.25 0  0.75 0.25 0  0.8 0.25 0  0.85 0.25 0  0.9 0.25 0  0.95 0.25 0  1 0.25 0  0 0.3 0  0.05 0.3 0  0.1 0.3 0  0.15 0.3 0  0.2 0.3 0  0.25 0.3 0  0.3 0.3 0  0.35 0.3 0  0.4 0.3 0  0.45 0.3 0  0.5 0.3 0  0.55 0.3 0  0.6 0.3 0  0.65 0.3 0  0.7 0.3 0  0.75 0.3 0  0.8 0.3 0  0.85 0.3 0  0.9 0.3 0  0.95 0.3 0  1 0.3 0  0 0.35 0  0.05 0.35 0  0.1 0.35 0  0.15 0.35 0  0.2 0.35 0  0.25 0.35 0  0.3 0.35 0  0.35 0.35 0  0.4 0.35 0  0.45 0.35 0  0.5 0.35 0  0.55 0.35 0  0.6 0.35 0  0.65 0.35 0  0.7 0.35 0  0.75 0.35 0  0.8 0.35 0  0.85 0.35 0  0.9 0.35 0  0.95 0.35 0  1 0.35 0  0 0.4 0  0.05 0.4 0  0.1 0.4 0  0.15 0.4 0  0.2 0.4 0  0.25 0.4 0  0.3 0.4 0  0.35 0.4 0  0.4 0.4 0  0.45 0.4 0  0.5 0.4 0  0.55 0.4 0  0.6 0.4 0  0.65 0.4 0  0.7 0.4 0  0.75 0.4 0  0.8 0.4 0  0.85 0.4 0  0.9 0.4 0  0.95 0.4 0  1 0.4 0  0 0.45 0  0.05 0.45 0  0.1 0.45 0  0.15 0.45 0  0.2 0.45 0  0.25 0.45 0  0.3 0.45 0  0.35 0.45 0  0.4 0.45 0  0.45 0.45 0  0.5 0.45 0  0.55 0.45 0  0.6 0.45 0  0.65 0.45 0  0.7 0.45 0  0.75 0.45 0  0.8 0.45 0  0.85 0.45 0  0.9 0.45 0  0.95 0.45 0  1 0.45 0  0 0.5 0  0.05 0.5 0  0.1 0.5 0  0.15 0.5 0  0.2 0.5 0  0.25 0.5 0  0.3 0.5 0  0.35 0.5 0  0.4 0.5 0  0.45 0.5 0  0.5 0.5 0  0.55 0.5 0  0.6 0.5 0  0.65 0.5 0  0.7 0.5 0  0.75 0.5 0  0.8 0.5 0  0.85 0.5 0  0.9 0.5 0  0.95 0.5 0  1 0.5 0  0 0.55 0  0.05 0.55 0  0.1 0.55 0  0.15 0.55 0  0.2 0.55 0  0.25 0.55 0  0.3 0.55 0  0.35 0.55 0  0.4 0.55 0  0.45 0.55 0  0.5 0.55 0  0.55 0.55 0  0.6 0.55 0  0.65 0.55 0  0.7 0.55 0  0.75 0.55 0  0.8 0.55 0  0.85 0.55 0  0.9 0.55 0  0.95 0.55 0  1 0.55 0  0 0.6 0  0.05 0.6 0  0.1 0.6 0  0.15 0.6 0  0.2 0.6 0  0.25 0.6 0  0.3 0.6 0  0.35 0.6 0  0.4 0.6 0  0.45 0.6 0  0.5 0.6 0  0.55 0.6 0  0.6 0.6 0  0.65 0.6 0  0.7 0.6 0  0.75 0.6 0  0.8 0.6 0  0.85 0.6 0  0.9 0.6 0  0.95 0.6 0  1 0.6 0  0 0.65 0  0.05 0.65 0  0.1 0.65 0  0.15 0.65 0  0.2 0.65 0  0.25 0.65 0  0.3 0.65 0  0.35 0.65 0  0.4 0.65 0  0.45 0.65 0  0.5 0.65 0  0.55 0.65 0  0.6 0.65 0  0.65 0.65 0  0.7 0.65 0  0.75 0.65 0  0.8 0.65 0  0.85 0.65 0  0.9 0.65 0  0.95 0.65 0  1 0.65 0  0 0.7 0  0.05 0.7 0  0.1 0.7 0  0.15 0.7 0  0.2 0.7 0  0.25 0.7 0  0.3 0.7 0  0.35 0.7 0  0.4 0.7 0  0.45 0.7 0  0.5 0.7 0  0.55 0.7 0  0.6 0.7 0  0.65 0.7 0  0.7 0.7 0  0.75 0.7 0  0.8 0.7 0  0.85 0.7 0  0.9 0.7 0  0.95 0.7 0  1 0.7 0  0 0.75 0  0.05 0.75 0  0.1 0.75 0  0.15 0.75 0  0.2 0.75 0  0.25 0.75 0  0.3 0.75 0  0.35 0.75 0  0.4 0.75 0  0.45 0.75 0  0.5 0.75 0  0.55 0.75 0  0.6 0.75 0  0.65 0.75 0  0.7 0.75 0  0.75 0.75 0  0.8 0.75 0  0.85 0.75 0  0.9 0.75 0  0.95 0.75 0  1 0.75 0  0 0.8 0  0.05 0.8 0  0.1 0.8 0  0.15 0.8 0  0.2 0.8 0  0.25 0.8 0  0.3 0.8 0  0.35 0.8 0  0.4 0.8 0  0.45 0.8 0  0.5 0.8 0  0.55 0.8 0  0.6 0.8 0  0.65 0.8 0  0.7 0.8 0  0.75 0.8 0  0.8 0.8 0  0.85 0.8 0  0.9 0.8 0  0.95 0.8 0  1 0.8 0  0 0.85 0  0.05 0.85 0  0.1 0.85 0  0.15 0.85 0  0.2 0.85 0  0.25 0.85 0  0.3 0.85 0  0.35 0.85 0  0.4 0.85 0  0.45 0.85 0  0.5 0.85 0  0.55 0.85 0  0.6 0.85 0  0.65 0.85 0  0.7 0.85 0  0.75 0.85 0  0.8 0.85 0  0.85 0.85 0  0.9 0.85 0  0.95 0.85 0  1 0.85 0  0 0.9 0  0.05 0.9 0  0.1 0.9 0  0.15 0.9 0  0.2 0.9 0  0.25 0.9 0  0.3 0.9 0  0.35 0.9 0  0.4 0.9 0  0.45 0.9 0  0.5 0.9 0  0.55 0.9 0  0.6 0.9 0  0.65 0.9 0  0.7 0.9 0  0.75 0.9 0  0.8 0.9 0  0.85 0.9 0  0.9 0.9 0  0.95 0.9 0  1 0.9 0  0 0.95 0  0.05 0.95 0  0.1 0.95 0  0.15 0.95 0  0.2 0.95 0  0.25 0.95 0  0.3 0.95 0  0.35 0.95 0  0.4 0.95 0  0.45 0.95 0  0.5 0.95 0  0.55 0.95 0  0.6 0.95 0  0.65 0.95 0  0.7 0.95 0  0.75 0.95 0  0.8 0.95 0  0.85 0.95 0  0.9 0.95 0  0.95 0.95 0  1 0.95 0  0 1 0  0.05 1 0  0.1 1 0  0.15 1 0  0.2 1 0  0.25 1 0  0.3 1 0  0.35 1 0  0.4 1 0  0.45 1 0  0.5 1 0  0.55 1 0  0.6 1 0  0.65 1 0  0.7 1 0  0.75 1 0  0.8 1 0  0.85 1 0  0.9 1 0  0.95 1 0  1 1 0  </DataArray>
</Points>
<Cells>
[...]
<PointData  Scalars="f_6847"> 
<DataArray  type="Float64"  Name="f_6847"  format="ascii">1.3630838648055983e+01  5.2544762917523729e+00  1.0808010643372631e+01  5.0364375760569962e+00  8.0955855377202326e+00  6.1975974483501295e+00  5.3785512349553590e+00  7.7847083066737381e+00  3.2193136043794612e+00  9.0106889428800212e+00  2.1813989963685230e+00  9.3524030239282432e+00  2.5654950879507248e+00  8.6938059330957405e+00  4.2929013446307733e+00  7.3653222758066956e+00  6.9466040036827836e+00  6.0658103861850252e+00  9.9840730001073652e+00  5.7879225676670547e+00  1.3371748807272452e+01  5.2544551485067448e+00  1.5180536858809415e+01  2.2606654673013459e+01  2.6055320909258413e+01  2.9919033853324152e+01  3.2138817121070659e+01  3.3937331031851429e+01  3.5788293342499223e+01  3.5977462173594432e+01  3.7563142726468712e+01  3.6563071284570320e+01  3.7622759905150716e+01  3.5863697833418151e+01  3.5946984280281463e+01  3.3748647240904887e+01  3.2343211600549331e+01  2.9720947286307858e+01  2.6241080070506634e+01  2.2487929373744841e+01  1.5387913907568930e+01  5.7879436501741317e+00  1.0808048918393059e+01  2.2606661912501639e+01  3.3382952575891601e+01  4.1659452230295450e+01  4.8386790054766330e+01  5.3501760555061544e+01  5.7444177224058876e+01  6.0454239472477049e+01  6.2339698710081066e+01  6.3701971784575967e+01  6.3885608157306962e+01  6.3712483432732768e+01  6.2320139270904065e+01  6.0482332699726555e+01  5.7411982799629271e+01  5.3538352009870458e+01  4.8353239154133561e+01  4.1689889257374269e+01  3.3338815466210455e+01  2.2487922076103043e+01  9.9840347723217864e+00  5.0363855251275034e+00  2.6055312005173782e+01  4.1659450472476586e+01  5.3813350133733920e+01  6.3467698338719650e+01  7.1038202900957458e+01  7.6884458429261656e+01  8.1245978247588141e+01  8.4226388835524176e+01  8.6020751862381275e+01  8.6566232983127378e+01  8.6022733273973898e+01  8.4223296239984634e+01  8.1251392720367903e+01  7.6879653033441457e+01  7.1045887126995510e+01  6.3464517081078725e+01  5.3826988265404651e+01  4.1689891028330628e+01  2.6241088993733300e+01  6.0658624036660047e+00  8.0956462835802618e+00  2.9919044397581303e+01  4.8386791844334574e+01  6.3467698701436539e+01  7.5633620868082929e+01  8.5300306465020384e+01  9.2811093072045281e+01  9.8420608658148169e+01  1.0230102827117886e+02  1.0459038703454641e+02  1.0533783319310442e+02  1.0459088615368493e+02  1.0230080681046425e+02  9.8422049914363342e+01  9.2810939968818019e+01  8.5302406286043507e+01  7.5633088513478512e+01  6.3464516716122269e+01  4.8353237359611860e+01  2.9720936726259993e+01  6.9465432753962109e+00  6.1975338602631140e+00  3.2138806096254037e+01  5.3501758636505748e+01  7.1038202577295550e+01  8.5300306397984158e+01  9.6720152402294005e+01  1.0564111223988840e+02  1.1232666512701833e+02  1.1696921620416803e+02  1.1970451714058234e+02  1.2060643831140884e+02  1.1970474649118034e+02  1.1696946850139881e+02  1.1232736975454677e+02  1.0564173804700796e+02  9.6721522194628633e+01  8.5302406353082731e+01  7.1045887450289968e+01  5.3538353928076845e+01  3.2343222624165392e+01  7.3653858646105173e+00  5.3786115269231738e+00  3.3937341497063215e+01  5.7444179039283490e+01  7.6884458745857401e+01  9.2811093125088959e+01  1.0564111225110535e+02  1.1570909395810689e+02  1.2327854213519444e+02  1.2854766480524583e+02  1.3165515322064115e+02  1.3268181930214124e+02  1.3165531267023778e+02  1.2854794865211028e+02  1.2327902265879536e+02  1.1570965217772046e+02  1.0564173803584889e+02  9.2810939916084564e+01  7.6879652718205350e+01  5.7411980989874927e+01  3.3748636790018487e+01  4.2928410340149030e+00  7.7846571292146525e+00  3.5788284450721669e+01  6.0454237927358022e+01  8.1245977979381550e+01  9.8420608611206674e+01  1.1232666511920483e+02  1.2327854213349663e+02  1.3153398066186730e+02  1.3729120490323865e+02  1.4069020271088144e+02  1.4181400717678997e+02  1.4069032171198970e+02  1.3729143703853765e+02  1.3153434013095745e+02  1.2327902266045096e+02  1.1232736976219182e+02  9.8422049960599210e+01  8.1251392985677015e+01  6.0482334234281119e+01  3.5946993144782468e+01  8.6938571454446922e+00  3.2193507282806268e+00  3.5977468634374375e+01  6.2339699834393670e+01  8.4226389031213074e+01  1.0230102830516384e+02  1.1696921621013517e+02  1.2854766480622186e+02  1.3729120490345846e+02  1.4339678797791242e+02  1.4700441074309092e+02  1.4819769865940762e+02  1.4700449074411711e+02  1.4339694554054287e+02  1.3729143703832335e+02  1.2854794865116384e+02  1.1696946849560831e+02  1.0230080677735087e+02  8.4223296048102341e+01  6.2320138160882053e+01  3.5863691409805092e+01  2.5654579163290747e+00  9.0106694552792970e+00  3.7563139320249149e+01  6.3701971189228338e+01  8.6020751758329894e+01  1.0459038701634307e+02  1.1970451713740458e+02  1.3165515322007187e+02  1.4069020271078867e+02  1.4700441074306761e+02  1.5073719276697662e+02  1.5197217778931000e+02  1.5073723315673593e+02  1.4700449074413598e+02  1.4069032171206700e+02  1.3165531267074658e+02  1.1970474649410657e+02  1.0459088617079945e+02  8.6022733373472832e+01  6.3712484011235397e+01  3.7622763267724864e+01  9.3524225674943651e+00  2.1813989669692555e+00  3.6563071307481351e+01  6.3885608166127469e+01  8.6566232985487787e+01  1.0533783319365013e+02  1.2060643831152183e+02  1.3268181930216087e+02  1.4181400717679199e+02  1.4819769865940725e+02  1.5197217778930991e+02  1.5322104813390155e+02  1.5197217778930997e+02  1.4819769865940737e+02  1.4181400717679210e+02  1.3268181930216099e+02  1.2060643831152187e+02  1.0533783319365014e+02  8.6566232985487829e+01  6.3885608166127490e+01  3.6563071307481401e+01  2.1813989669692821e+00  9.3524225674944734e+00  3.7622763267724842e+01  6.3712484011235361e+01  8.6022733373472775e+01  1.0459088617079941e+02  1.1970474649410654e+02  1.3165531267074644e+02  1.4069032171206683e+02  1.4700449074413592e+02  1.5073723315673593e+02  1.5197217778931002e+02  1.5073719276697670e+02  1.4700441074306772e+02  1.4069020271078881e+02  1.3165515322007198e+02  1.1970451713740464e+02  1.0459038701634310e+02  8.6020751758329894e+01  6.3701971189228310e+01  3.7563139320249157e+01  9.0106694552793396e+00  2.5654579163289104e+00  3.5863691409805028e+01  6.2320138160882031e+01  8.4223296048102299e+01  1.0230080677735083e+02  1.1696946849560824e+02  1.2854794865116369e+02  1.3729143703832324e+02  1.4339694554054282e+02  1.4700449074411711e+02  1.4819769865940773e+02  1.4700441074309100e+02  1.4339678797791260e+02  1.3729120490345858e+02  1.2854766480622203e+02  1.1696921621013519e+02  1.0230102830516383e+02  8.4226389031213060e+01  6.2339699834393635e+01  3.5977468634374361e+01  3.2193507282805256e+00  8.6938571454449054e+00  3.5946993144782489e+01  6.0482334234281147e+01  8.1251392985677015e+01  9.8422049960599210e+01  1.1232736976219175e+02  1.2327902266045088e+02  1.3153434013095736e+02  1.3729143703853759e+02  1.4069032171198970e+02  1.4181400717679000e+02  1.4069020271088152e+02  1.3729120490323874e+02  1.3153398066186739e+02  1.2327854213349664e+02  1.1232666511920480e+02  9.8420608611206617e+01  8.1245977979381522e+01  6.0454237927358001e+01  3.5788284450721690e+01  7.7846571292148017e+00  4.2928410340147014e+00  3.3748636790018431e+01  5.7411980989874920e+01  7.6879652718205321e+01  9.2810939916084550e+01  1.0564173803584882e+02  1.1570965217772032e+02  1.2327902265879518e+02  1.2854794865211014e+02  1.3165531267023766e+02  1.3268181930214118e+02  1.3165515322064115e+02  1.2854766480524586e+02  1.2327854213519441e+02  1.1570909395810685e+02  1.0564111225110531e+02  9.2811093125088888e+01  7.6884458745857330e+01  5.7444179039283448e+01  3.3937341497063187e+01  5.3786115269230024e+00  7.3653858646106780e+00  3.2343222624165392e+01  5.3538353928076823e+01  7.1045887450289882e+01  8.5302406353082645e+01  9.6721522194628534e+01  1.0564173804700775e+02  1.1232736975454657e+02  1.1696946850139862e+02  1.1970474649118020e+02  1.2060643831140872e+02  1.1970451714058230e+02  1.1696921620416806e+02  1.1232666512701829e+02  1.0564111223988833e+02  9.6720152402293948e+01  8.5300306397984130e+01  7.1038202577295522e+01  5.3501758636505720e+01  3.2138806096254093e+01  6.1975338602633006e+00  6.9465432753960972e+00  2.9720936726259929e+01  4.8353237359611832e+01  6.3464516716122233e+01  7.5633088513478455e+01  8.5302406286043407e+01  9.2810939968817848e+01  9.8422049914363157e+01  1.0230080681046405e+02  1.0459088615368478e+02  1.0533783319310432e+02  1.0459038703454635e+02  1.0230102827117882e+02  9.8420608658148140e+01  9.2811093072045111e+01  8.5300306465020313e+01  7.5633620868082886e+01  6.3467698701436511e+01  4.8386791844334532e+01  2.9919044397581278e+01  8.0956462835800611e+00  6.0658624036660758e+00  2.6241088993733289e+01  4.1689891028330642e+01  5.3826988265404644e+01  6.3464517081078704e+01  7.1045887126995439e+01  7.6879653033441357e+01  8.1251392720367789e+01  8.4223296239984549e+01  8.6022733273973813e+01  8.6566232983127307e+01  8.6020751862381189e+01  8.4226388835524091e+01  8.1245978247588084e+01  7.6884458429261528e+01  7.1038202900957387e+01  6.3467698338719607e+01  5.3813350133733906e+01  4.1659450472476578e+01  2.6055312005173832e+01  5.0363855251276970e+00  9.9840347723217633e+00  2.2487922076103018e+01  3.3338815466210455e+01  4.1689889257374254e+01  4.8353239154133554e+01  5.3538352009870415e+01  5.7411982799629236e+01  6.0482332699726477e+01  6.2320139270904001e+01  6.3712483432732711e+01  6.3885608157306898e+01  6.3701971784575910e+01  6.2339698710081002e+01  6.0454239472477035e+01  5.7444177224058826e+01  5.3501760555061509e+01  4.8386790054766294e+01  4.1659452230295429e+01  3.3382952575891586e+01  2.2606661912501625e+01  1.0808048918392887e+01  5.7879436501741193e+00  1.5387913907568901e+01  2.2487929373744883e+01  2.6241080070506623e+01  2.9720947286307918e+01  3.2343211600549296e+01  3.3748647240904930e+01  3.5946984280281441e+01  3.5863697833418186e+01  3.7622759905150723e+01  3.6563071284570348e+01  3.7563142726468726e+01  3.5977462173594439e+01  3.5788293342499252e+01  3.3937331031851414e+01  3.2138817121070709e+01  2.9919033853324123e+01  2.6055320909258455e+01  2.2606654673013459e+01  1.5180536858809488e+01  5.2544551485068798e+00  1.3371748807272507e+01  5.7879225676669384e+00  9.9840730001075393e+00  6.0658103861848200e+00  6.9466040036830066e+00  7.3653222758064745e+00  4.2929013446309998e+00  8.6938059330955451e+00  2.5654950879508820e+00  9.3524030239281490e+00  2.1813989963685594e+00  9.0106889428800461e+00  3.2193136043793689e+00  7.7847083066738847e+00  5.3785512349551885e+00  6.1975974483503053e+00  8.0955855377200585e+00  5.0364375760571543e+00  1.0808010643372484e+01  5.2544762917524821e+00  1.3630838648055880e+01  </DataArray> 
</PointData> 
</Piece>
</UnstructuredGrid>
</VTKFile>