<?xml version="1.0"?>
<VTKFile type="UnstructuredGrid"  version="0.1"  >
<UnstructuredGrid>
<Piece  NumberOfPoints="441" NumberOfCells="800">
<Points>
<DataArray  type="Float64"  NumberOfComponents="3"  format="ascii">0 0 0  0.05 0 0  0.1 0 0  0.15 0 0  0.2 0 0  0.25 0 0  0.3 0 0  0.35 0 0  0.4 0 0  0.45 0 0  0.5 0 0  0.55 0 0  0.6 0 0  0.65 0 0  0.7 0 0  0.75 0 0  0.8 0 0  0.85 0 0  0.9 0 0  0.95 0 0  1 0 0  0 0.05 0  0.05 0.05 0  0.1 0.05 0  0.15 0.05 0  0.2 0.05 0  0.25 0.05 0  0.3 0.05 0  0.35 0.05 0  0.4 0.05 0  0.45 0.05 0  0.5 0.05 0  0.55 0.05 0  0.6 0.05 0  0.65 0.05 0  0.7 0.05 0  0.75 0.05 0  0.8 0.05 0  0.85 0.05 0  0.9 0.05 0  0.95 0.05 0  1 0.05 0  0 0.1 0  0.05 0.1 0  0.1 0.1 0  0.15 0.1 0  0.2 0.1 0  0.25 0.1 0  0.3 0.1 0  0.35 0.1 0  0.4 0.1 0  0.45 0.1 0  0.5 0.1 0  0.55 0.1 0  0.6 0.1 0  0.65 0.1 0  0.7 0.1 0  0.75 0.1 0  0.8 0.1 0  0.85 0.1 0  0.9 0.1 0  0.95 0.1 0  1 0.1 0  0 0.15 0  0.05 0.15 0  0.1 0.15 0  0.15 0.15 0  0.2 0.15 0  0.25 0.15 0  0.3 0.15 0  0.35 0.15 0  0.4 0.15 0  0.45 0.15 0  0.5 0.15 0  0.55 0.15 0  0.6 0.15 0  0.65 0.15 0  0.7 0.15 0  0.75 0.15 0  0.8 0.15 0  0.85 0.15 0  0.9 0.15 0  0.95 0.15 0  1 0.15 0  0 0.2 0  0.05 0.2 0  0.1 0.2 0  0.15 0.2 0  0.2 0.2 0  0.25 0.2 0  0.3 0.2 0  0.35 0.2 0  0.4 0.2 0  0.45 0.2 0  0.5 0.2 0  0.55 0.2 0  0.6 0.2 0  0.65 0.2 0  0.7 0.2 0  0.75 0.2 0  0.8 0.2 0  0.85 0.2 0  0.9 0.2 0  0.95 0.2 0  1 0.2 0  0 0.25 0  0.05 0.25 0  0.1 0.25 0  0.15 0.25 0  0.2 0.25 0  0.25 0.25 0  0.3 0.25 0  0.35 0.25 0  0.4 0.25 0  0.45 0.25 0  0.5 0.25 0  0.55 0.25 0  0.6 0.25 0  0.65 0.25 0  0.7 0.25 0  0.75 0.25 0  0.8 0.25 0  0.85 0.25 0  0.9 0.25 0  0.95 0.25 0  1 0.25 0  0 0.3 0  0.05 0.3 0  0.1 0.3 0  0.15 0.3 0  0.2 0.3 0  0.25 0.3 0  0.3 0.3 0  0.35 0.3 0  0.4 0.3 0  0.45 0.3 0  0.5 0.3 0  0.55 0.3 0  0.6 0.3 0  0.65 0.3 0  0.7 0.3 0  0.75 0.3 0  0.8 0.3 0  0.85 0.3 0  0.9 0.3 0  0.95 0.3 0  1 0.3 0  0 0.35 0  0.05 0.35 0  0.1 0.35 0  0.15 0.35 0  0.2 0.35 0  0.25 0.35 0  0.3 0.35 0  0.35 0.35 0  0.4 0.35 0  0.45 0.35 0  0.5 0.35 0  0.55 0.35 0  0.6 0.35 0  0.65 0.35 0  0.7 0.35 0  0.75 0.35 0  0.8 0.35 0  0.85 0.35 0  0.9 0.35 0  0.95 0.35 0  1 0.35 0  0 0.4 0  0.05 0.4 0  0.1 0.4 0  0.15 0.4 0  0.2 0.4 0  0.25 0.4 0  0.3 0.4 0  0.35 0.4 0  0.4 0.4 0  0.45 0.4 0  0.5 0.4 0  0.55 0.4 0  0.6 0.4 0  0.65 0.4 0  0.7 0.4 0  0.75 0.4 0  0.8 0.4 0  0.85 0.4 0  0.9 0.4 0  0.95 0.4 0  1 0.4 0  0 0.45 0  0.05 0.45 0  0.1 0.45 0  0.15 0.45 0  0.2 0.45 0  0.25 0.45 0  0.3 0.45 0  0.35 0.45 0  0.4 0.45 0  0.45 0.45 0  0.5 0.45 0  0.55 0.45 0  0.6 0.45 0  0.65 0.45 0  0.7 0.45 0  0.75 0.45 0  0.8 0.45 0  0.85 0.45 0  0.9 0.45 0  0.95 0.45 0  1 0.45 0  0 0.5 0  0.05 0.5 0  0.1 0.5 0  0.15 0.5 0  0.2 0.5 0  0.25 0.5 0  0.3 0.5 0  0.35 0.5 0  0.4 0.5 0  0.45 0.5 0  0.5 0.5 0  0.55 0.5 0  0.6 0.5 0  0.65 0.5 0  0.7 0.5 0  0.75 0.5 0  0.8 0.5 0  0.85 0.5 0  0.9 0.5 0  0.95 0.5 0  1 0.5 0  0 0.55 0  0.05 0.55 0  0.1 0.55 0  0.15 0.55 0  0.2 0.55 0  0.25 0.55 0  0.3 0.55 0  0.35 0.55 0  0.4 0.55 0  0.45 0.55 0  0.5 0.55 0  0.55 0.55 0  0.6 0.55 0  0.65 0.55 0  0.7 0.55 0  0.75 0.55 0  0.8 0.55 0  0.85 0.55 0  0.9 0.55 0  0.95 0.55 0  1 0.55 0  0 0.6 0  0.05 0.6 0  0.1 0.6 0  0.15 0.6 0  0.2 0.6 0  0.25 0.6 0  0.3 0.6 0  0.35 0.6 0  0.4 0.6 0  0.45 0.6 0  0.5 0.6 0  0.55 0.6 0  0.6 0.6 0  0.65 0.6 0  0.7 0.6 0  0.75 0.6 0  0.8 0.6 0  0.85 0.6 0  0.9 0.6 0  0.95 0.6 0  1 0.6 0  0 0.65 0  0.05 0.65 0  0.1 0.65 0  0.15 0.65 0  0.2 0.65 0  0.25 0.65 0  0.3 0.65 0  0.35 0.65 0  0.4 0.65 0  0.45 0.65 0  0.5 0.65 0  0.55 0.65 0  0.6 0.65 0  0.65 0.65 0  0.7 0.65 0  0.75 0.65 0  0.8 0.65 0  0.85 0.65 0  0.9 0.65 0  0.95 0.65 0  1 0.65 0  0 0.7 0  0.05 0.7 0  0.1 0.7 0  0.15 0.7 0  0.2 0.7 0  0.25 0.7 0  0.3 0.7 0  0.35 0.7 0  0.4 0.7 0  0.45 0.7 0  0.5 0.7 0  0.55 0.7 0  0.6 0.7 0  0.65 0.7 0  0.7 0.7 0  0.75 0.7 0  0.8 0.7 0  0.85 0.7 0  0.9 0.7 0  0.95 0.7 0  1 0.7 0  0 0.75 0  0.05 0.75 0  0.1 0.75 0  0.15 0.75 0  0.2 0.75 0  0.25 0.75 0  0.3 0.75 0  0.35 0.75 0  0.4 0.75 0  0.45 0.75 0  0.5 0.75 0  0.55 0.75 0  0.6 0.75 0  0.65 0.75 0  0.7 0.75 0  0.75 0.75 0  0.8 0.75 0  0.85 0.75 0  0.9 0.75 0  0.95 0.75 0  1 0.75 0  0 0.8 0  0.05 0.8 0  0.1 0.8 0  0.15 0.8 0  0.2 0.8 0  0.25 0.8 0  0.3 0.8 0  0.35 0.8 0  0.4 0.8 0  0.45 0.8 0  0.5 0.8 0  0.55 0.8 0  0.6 0.8 0  0.65 0.8 0  0.7 0.8 0  0.75 0.8 0  0.8 0.8 0  0.85 0.8 0  0.9 0.8 0  0.95 0.8 0  1 0.8 0  0 0.85 0  0.05 0.85 0  0.1 0.85 0  0.15 0.85 0  0.2 0.85 0  0.25 0.85 0  0.3 0.85 0  0.35 0.85 0  0.4 0.85 0  0.45 0.85 0  0.5 0.85 0  0.55 0.85 0  0.6 0.85 0  0.65 0.85 0  0.7 0.85 0  0.75 0.85 0  0.8 0.85 0  0.85 0.85 0  0.9 0.85 0  0.95 0.85 0  1 0.85 0  0 0.9 0  0.05 0.9 0  0.1 0.9 0  0.15 0.9 0  0.2 0.9 0  0.25 0.9 0  0.3 0.9 0  0.35 0.9 0  0.4 0.9 0  0.45 0.9 0  0.5 0.9 0  0.55 0.9 0  0.6 0.9 0  0.65 0.9 0  0.7 0.9 0  0.75 0.9 0  0.8 0.9 0  0.85 0.9 0  0.9 0.9 0  0.95 0.9 0  1 0.9 0  0 0.95 0  0.05 0.95 0  0.1 0.95 0  0.15 0.95 0  0.2 0.95 0  0.25 0.95 0  0.3 0.95 0  0.35 0.95 0  0.4 0.95 0  0.45 0.95 0  0.5 0.95 0  0.55 0.95 0  0.6 0.95 0  0.65 0.95 0  0.7 0.95 0  0.75 0.95 0  0.8 0.95 0  0.85 0.95 0  0.9 0.95 0  0.95 0.95 0  1 0.95 0  0 1 0  0.05 1 0  0.1 1 0  0.15 1 0  0.2 1 0  0.25 1 0  0.3 1 0  0.35 1 0  0.4 1 0  0.45 1 0  0.5 1 0  0.55 1 0  0.6 1 0  0.65 1 0  0.7 1 0  0.75 1 0  0.8 1 0  0.85 1 0  0.9 1 0  0.95 1 0  1 1 0  </DataArray>
</Points>
<Cells>
[...]
<PointData  Scalars="f_6847"> 
<DataArray  type="Float64"  Name="f_6847"  format="ascii">1.3629693185106600e+01  5.2558246517954741e+00  1.0808502965028943e+01  5.0384761331291319e+00  8.0977211867594630e+00  6.2000216614909673e+00  5.3821202443170257e+00  7.7873249164237786e+00  3.2238405689005778e+00  9.0134011002930432e+00  2.1862235320323604e+00  9.3551645661289431e+00  2.5699035765503195e+00  8.6965530094483796e+00  4.2962719062399168e+00  7.3679114719557779e+00  6.9485260275527869e+00  6.0679903900017935e+00  9.9844076369277861e+00  5.7893417717349891e+00  1.3370556361063652e+01  5.2558239676529208e+00  1.5177270637976871e+01  2.2598873241222044e+01  2.6043789046167202e+01  2.9903840028383222e+01  3.2120401435082947e+01  3.3916325977319225e+01  3.5764881817320038e+01  3.5952749753897884e+01  3.7537123820720346e+01  3.6537101832253285e+01  3.7596787935589241e+01  3.5839038961420229e+01  3.5923702476546374e+01  3.3727740032994305e+01  3.2324975853205871e+01  2.9705873830489274e+01  2.6229725087026850e+01  2.2480248996120377e+01  1.5384747269400718e+01  5.7893424539121723e+00  1.0808504203512884e+01  2.2598873475473770e+01  3.3366559984205772e+01  4.1634882503374470e+01  4.8354625141212829e+01  5.3462830421946308e+01  5.7399501665137443e+01  6.0404891254726493e+01  6.2287017694465220e+01  6.3647180711689742e+01  6.3830214128215992e+01  6.3657762096389632e+01  6.2267587222608014e+01  6.0433178138256224e+01  5.7367536182273390e+01  5.3499692172990301e+01  4.8321342733999757e+01  4.1665583591522555e+01  3.3322628722692095e+01  2.2480248759986967e+01  9.9844063999722952e+00  5.0384744488912290e+00  2.6043788758053285e+01  4.1634882446495844e+01  5.3776436179444623e+01  6.3419387912642804e+01  7.0979732048562170e+01  7.6817319174941332e+01  8.1171862924415819e+01  8.4147190121540760e+01  8.5938454055074260e+01  8.6482937662608819e+01  8.5940522877234599e+01  8.4144266157009682e+01  8.1177519501446142e+01  7.6812810995303295e+01  7.0987751871556924e+01  6.3416550309098014e+01  5.3790397629514153e+01  4.1665583648826271e+01  2.6229725375760164e+01  6.0679920731573107e+00  8.0977231523435673e+00  2.9903840369569004e+01  4.8354625199118772e+01  6.3419387924379400e+01  7.5570398269848667e+01  8.5223781825197406e+01  9.2723210368398341e+01  9.8323593488334097e+01  1.0219733926785047e+02  1.0448264331466763e+02  1.0522876160915344e+02  1.0448323795249854e+02  1.0219730295885662e+02  9.8325298547489325e+01  9.2723381978283967e+01  8.5226244806386561e+01  7.5570237421958012e+01  6.3416550297288957e+01  4.8321342675933536e+01  2.9705873488792601e+01  6.9485240625374036e+00  6.2000196039395101e+00  3.2120401078347449e+01  5.3462830359866615e+01  7.0979732038089253e+01  8.5223781823028276e+01  9.6627518573322320e+01  1.0553471888611362e+02  1.1220920674379124e+02  1.1684366543797584e+02  1.1957404802692874e+02  1.2047434856637008e+02  1.1957437175647220e+02  1.1684410068433820e+02  1.1221017139958765e+02  1.0553566430662366e+02  9.6629244386869431e+01  8.5226244808555776e+01  7.0987751882017946e+01  5.3499692235058689e+01  3.2324976209902530e+01  7.3679135295303135e+00  5.3821221952143077e+00  3.3916326315947302e+01  5.7399501723873563e+01  7.6817319185185568e+01  9.2723210370114643e+01  1.0553471888647654e+02  1.1558688644578757e+02  1.2314361394431729e+02  1.2840342888748646e+02  1.3150525567076352e+02  1.3253004778858488e+02  1.3150550038038162e+02  1.2840387791829369e+02  1.2314432892580449e+02  1.1558773237738714e+02  1.0553566430626248e+02  9.2723381976577599e+01  7.6812810985103042e+01  5.7367536123714252e+01  3.3727739694829793e+01  4.2962699547393823e+00  7.7873232604491962e+00  3.5764881529604352e+01  6.0404891204730298e+01  8.1171862915737336e+01  9.8323593486815170e+01  1.1220920674353840e+02  1.2314361394426236e+02  1.3138499601234079e+02  1.3713193072182315e+02  1.4052466435920829e+02  1.4164638691663629e+02  1.4052485302504977e+02  1.3713229776033597e+02  1.3138554678264671e+02  1.2314432892585802e+02  1.1221017139983496e+02  9.8325298548985330e+01  8.1177519510030848e+01  6.0433178187910521e+01  3.5923702763379424e+01  8.6965546665517337e+00  3.2238417701371902e+00  3.5952749962952566e+01  6.2287017730845150e+01  8.4147190127872747e+01  1.0219733926895009e+02  1.1684366543816888e+02  1.2840342888751800e+02  1.3713193072183023e+02  1.4322650109136035e+02  1.4682741383754183e+02  1.4801846294201269e+02  1.4682754301366262e+02  1.4322675384594518e+02  1.3713229776032907e+02  1.2840387791826308e+02  1.1684410068415077e+02  1.0219730295778511e+02  8.4144266150800888e+01  6.2267587186690463e+01  3.5839038753568197e+01  2.5699023737697804e+00  9.0134004697229972e+00  3.7537123710503572e+01  6.3647180692425749e+01  8.5938454051707367e+01  1.0448264331407857e+02  1.1957404802682588e+02  1.3150525567074504e+02  1.4052466435920527e+02  1.4682741383754106e+02  1.5055320848636703e+02  1.5178585331422588e+02  1.5055327428473399e+02  1.4682754301366327e+02  1.4052485302505238e+02  1.3150550038039813e+02  1.1957437175656685e+02  1.0448323795305230e+02  8.5940522880454097e+01  6.3657762115108511e+01  3.7596788044393719e+01  9.3551651985097344e+00  2.1862235310811085e+00  3.6537101832994601e+01  6.3830214128501332e+01  8.6482937662685131e+01  1.0522876160917103e+02  1.2047434856637372e+02  1.3253004778858551e+02  1.4164638691663632e+02  1.4801846294201269e+02  1.5178585331422588e+02  1.5303234067360788e+02  1.5178585331422588e+02  1.4801846294201277e+02  1.4164638691663643e+02  1.3253004778858559e+02  1.2047434856637375e+02  1.0522876160917104e+02  8.6482937662685160e+01  6.3830214128501353e+01  3.6537101832994651e+01  2.1862235310811600e+00  9.3551651985098410e+00  3.7596788044393698e+01  6.3657762115108476e+01  8.5940522880454040e+01  1.0448323795305224e+02  1.1957437175656678e+02  1.3150550038039802e+02  1.4052485302505221e+02  1.4682754301366327e+02  1.5055327428473399e+02  1.5178585331422593e+02  1.5055320848636711e+02  1.4682741383754117e+02  1.4052466435920545e+02  1.3150525567074519e+02  1.1957404802682595e+02  1.0448264331407862e+02  8.5938454051707353e+01  6.3647180692425728e+01  3.7537123710503579e+01  9.0134004697229955e+00  2.5699023737696431e+00  3.5839038753568147e+01  6.2267587186690442e+01  8.4144266150800831e+01  1.0219730295778510e+02  1.1684410068415073e+02  1.2840387791826299e+02  1.3713229776032895e+02  1.4322675384594507e+02  1.4682754301366262e+02  1.4801846294201277e+02  1.4682741383754191e+02  1.4322650109136052e+02  1.3713193072183040e+02  1.2840342888751812e+02  1.1684366543816900e+02  1.0219733926895013e+02  8.4147190127872705e+01  6.2287017730845101e+01  3.5952749962952559e+01  3.2238417701371556e+00  8.6965546665518829e+00  3.5923702763379431e+01  6.0433178187910549e+01  8.1177519510030848e+01  9.8325298548985344e+01  1.1221017139983496e+02  1.2314432892585798e+02  1.3138554678264663e+02  1.3713229776033586e+02  1.4052485302504977e+02  1.4164638691663632e+02  1.4052466435920840e+02  1.3713193072182327e+02  1.3138499601234091e+02  1.2314361394426243e+02  1.1220920674353845e+02  9.8323593486815156e+01  8.1171862915737265e+01  6.0404891204730255e+01  3.5764881529604367e+01  7.7873232604492717e+00  4.2962699547392154e+00  3.3727739694829751e+01  5.7367536123714238e+01  7.6812810985103013e+01  9.2723381976577599e+01  1.0553566430626246e+02  1.1558773237738703e+02  1.2314432892580437e+02  1.2840387791829357e+02  1.3150550038038156e+02  1.3253004778858485e+02  1.3150525567076352e+02  1.2840342888748651e+02  1.2314361394431737e+02  1.1558688644578766e+02  1.0553471888647655e+02  9.2723210370114629e+01  7.6817319185185511e+01  5.7399501723873527e+01  3.3916326315947295e+01  5.3821221952142020e+00  7.3679135295304761e+00  3.2324976209902523e+01  5.3499692235058639e+01  7.0987751882017889e+01  8.5226244808555705e+01  9.6629244386869345e+01  1.0553566430662346e+02  1.1221017139958749e+02  1.1684410068433803e+02  1.1957437175647205e+02  1.2047434856636995e+02  1.1957404802692869e+02  1.1684366543797590e+02  1.1220920674379126e+02  1.0553471888611359e+02  9.6627518573322291e+01  8.5223781823028204e+01  7.0979732038089210e+01  5.3462830359866594e+01  3.2120401078347484e+01  6.2000196039396380e+00  6.9485240625372597e+00  2.9705873488792552e+01  4.8321342675933522e+01  6.3416550297288929e+01  7.5570237421957955e+01  8.5226244806386489e+01  9.2723381978283854e+01  9.8325298547489169e+01  1.0219730295885648e+02  1.0448323795249838e+02  1.0522876160915330e+02  1.0448264331466756e+02  1.0219733926785040e+02  9.8323593488334041e+01  9.2723210368398270e+01  8.5223781825197364e+01  7.5570398269848610e+01  6.3419387924379365e+01  4.8354625199118743e+01  2.9903840369568989e+01  8.0977231523434217e+00  6.0679920731574297e+00  2.6229725375760164e+01  4.1665583648826278e+01  5.3790397629514175e+01  6.3416550309098014e+01  7.0987751871556881e+01  7.6812810995303224e+01  8.1177519501446042e+01  8.4144266157009611e+01  8.5940522877234457e+01  8.6482937662608649e+01  8.5938454055074146e+01  8.4147190121540660e+01  8.1171862924415748e+01  7.6817319174941289e+01  7.0979732048562113e+01  6.3419387912642762e+01  5.3776436179444616e+01  4.1634882446495830e+01  2.6043788758053321e+01  5.0384744488913702e+00  9.9844063999722010e+00  2.2480248759986939e+01  3.3322628722692095e+01  4.1665583591522562e+01  4.8321342733999757e+01  5.3499692172990272e+01  5.7367536182273348e+01  6.0433178138256139e+01  6.2267587222607929e+01  6.3657762096389540e+01  6.3830214128215900e+01  6.3647180711689664e+01  6.2287017694465135e+01  6.0404891254726429e+01  5.7399501665137400e+01  5.3462830421946251e+01  4.8354625141212800e+01  4.1634882503374456e+01  3.3366559984205757e+01  2.2598873475473763e+01  1.0808504203512754e+01  5.7893424539122353e+00  1.5384747269400748e+01  2.2480248996120395e+01  2.6229725087026896e+01  2.9705873830489313e+01  3.2324975853205899e+01  3.3727740032994333e+01  3.5923702476546353e+01  3.5839038961420236e+01  3.7596787935589219e+01  3.6537101832253299e+01  3.7537123820720325e+01  3.5952749753897876e+01  3.5764881817320038e+01  3.3916325977319218e+01  3.2120401435082982e+01  2.9903840028383211e+01  2.6043789046167223e+01  2.2598873241222044e+01  1.5177270637976923e+01  5.2558239676530132e+00  1.3370556361063606e+01  5.7893417717350362e+00  9.9844076369277381e+00  6.0679903900018273e+00  6.9485260275527549e+00  7.3679114719557859e+00  4.2962719062399586e+00  8.6965530094482819e+00  2.5699035765504390e+00  9.3551645661288401e+00  2.1862235320324546e+00  9.0134011002929899e+00  3.2238405689005862e+00  7.7873249164238336e+00  5.3821202443169529e+00  6.2000216614910517e+00  8.0977211867593724e+00  5.0384761331292198e+00  1.0808502965028852e+01  5.2558246517955434e+00  1.3629693185106531e+01  </DataArray> 
</PointData> 
</Piece>
</UnstructuredGrid>
</VTKFile>