<?xml version="1.0"?>
<VTKFile type="UnstructuredGrid"  version="0.1"  >
<UnstructuredGrid>
<Piece  NumberOfPoints="441" NumberOfCells="800">
<Points>
<DataArray  type="Float64"  NumberOfComponents="3"  format="ascii">0 0 0  0.05 0 0  0.1 0 0  0.15 0 0  0.2 0 0  0.25 0 0  0.3 0 0  0.35 0 0  0.4 0 0  0.45 0 0  0.5 0 0  0.55 0 0  0.6 0 0  0.65 0 0  0.7 0 0  0.75 0 0  0.8 0 0  0.85 0 0  0.9 0 0  0.95 0 0  1 0 0  0 0.05 0  0.05 0.05 0  0.1 0.05 0  0.15 0.05 0  0.2 0.05 0  0.25 0.05 0  0.3 0.05 0  0.35 0.05 0  0.4 0.05 0  0.45 0.05 0  0.5 0.05 0  0.55 0.05 0  0.6 0.05 0  0.65 0.05 0  0.7 0.05 0  0.75 0.05 0  0.8 0.05 0  0.85 0.05 0  0.9 0.05 0  0.95 0.05 0  1 0.05 0  0 0.1 0  0.05 0.1 0  0.1 0.1 0  0.15 0.1 0  0.2 0.1 0  0.25 0.1 0  0.3 0.1 0  0.35 0.1 0  0.4 0.1 0  0.45 0.1 0  0.5 0.1 0  0.55 0.1 0  0.6 0.1 0  0.65 0.1 0  0.7 0.1 0  0.75 0.1 0  0.8 0.1 0  0.85 0.1 0  0.9 0.1 0  0.95 0.1 0  1 0.1 0  0 0.15 0  0.05 0.15 0  0.1 0.15 0  0.15 0.15 0  0.2 0.15 0  0.25 0.15 0  0.3 0.15 0  0.35 0.15 0  0.4 0.15 0  0.45 0.15 0  0.5 0.15 0  0.55 0.15 0  0.6 0.15 0  0.65 0.15 0  0.7 0.15 0  0.75 0.15 0  0.8 0.15 0  0.85 0.15 0  0.9 0.15 0  0.95 0.15 0  1 0.15 0  0 0.2 0  0.05 0.2 0  0.1 0.2 0  0.15 0.2 0  0.2 0.2 0  0.25 0.2 0  0.3 0.2 0  0.35 0.2 0  0.4 0.2 0  0.45 0.2 0  0.5 0.2 0  0.55 0.2 0  0.6 0.2 0  0.65 0.2 0  0.7 0.2 0  0.75 0.2 0  0.8 0.2 0  0.85 0.2 0  0.9 0.2 0  0.95 0.2 0  1 0.2 0  0 0.25 0  0.05 0.25 0  0.1 0.25 0  0.15 0.25 0  0.2 0.25 0  0.25 0.25 0  0.3 0.25 0  0.35 0.25 0  0.4 0.25 0  0.45 0.25 0  0.5 0.25 0  0.55 0.25 0  0.6 0.25 0  0.65 0.25 0  0.7 0.25 0  0.75 0.25 0  0.8 0.25 0  0.85 0.25 0  0.9 0.25 0  0.95 0.25 0  1 0.25 0  0 0.3 0  0.05 0.3 0  0.1 0.3 0  0.15 0.3 0  0.2 0.3 0  0.25 0.3 0  0.3 0.3 0  0.35 0.3 0  0.4 0.3 0  0.45 0.3 0  0.5 0.3 0  0.55 0.3 0  0.6 0.3 0  0.65 0.3 0  0.7 0.3 0  0.75 0.3 0  0.8 0.3 0  0.85 0.3 0  0.9 0.3 0  0.95 0.3 0  1 0.3 0  0 0.35 0  0.05 0.35 0  0.1 0.35 0  0.15 0.35 0  0.2 0.35 0  0.25 0.35 0  0.3 0.35 0  0.35 0.35 0  0.4 0.35 0  0.45 0.35 0  0.5 0.35 0  0.55 0.35 0  0.6 0.35 0  0.65 0.35 0  0.7 0.35 0  0.75 0.35 0  0.8 0.35 0  0.85 0.35 0  0.9 0.35 0  0.95 0.35 0  1 0.35 0  0 0.4 0  0.05 0.4 0  0.1 0.4 0  0.15 0.4 0  0.2 0.4 0  0.25 0.4 0  0.3 0.4 0  0.35 0.4 0  0.4 0.4 0  0.45 0.4 0  0.5 0.4 0  0.55 0.4 0  0.6 0.4 0  0.65 0.4 0  0.7 0.4 0  0.75 0.4 0  0.8 0.4 0  0.85 0.4 0  0.9 0.4 0  0.95 0.4 0  1 0.4 0  0 0.45 0  0.05 0.45 0  0.1 0.45 0  0.15 0.45 0  0.2 0.45 0  0.25 0.45 0  0.3 0.45 0  0.35 0.45 0  0.4 0.45 0  0.45 0.45 0  0.5 0.45 0  0.55 0.45 0  0.6 0.45 0  0.65 0.45 0  0.7 0.45 0  0.75 0.45 0  0.8 0.45 0  0.85 0.45 0  0.9 0.45 0  0.95 0.45 0  1 0.45 0  0 0.5 0  0.05 0.5 0  0.1 0.5 0  0.15 0.5 0  0.2 0.5 0  0.25 0.5 0  0.3 0.5 0  0.35 0.5 0  0.4 0.5 0  0.45 0.5 0  0.5 0.5 0  0.55 0.5 0  0.6 0.5 0  0.65 0.5 0  0.7 0.5 0  0.75 0.5 0  0.8 0.5 0  0.85 0.5 0  0.9 0.5 0  0.95 0.5 0  1 0.5 0  0 0.55 0  0.05 0.55 0  0.1 0.55 0  0.15 0.55 0  0.2 0.55 0  0.25 0.55 0  0.3 0.55 0  0.35 0.55 0  0.4 0.55 0  0.45 0.55 0  0.5 0.55 0  0.55 0.55 0  0.6 0.55 0  0.65 0.55 0  0.7 0.55 0  0.75 0.55 0  0.8 0.55 0  0.85 0.55 0  0.9 0.55 0  0.95 0.55 0  1 0.55 0  0 0.6 0  0.05 0.6 0  0.1 0.6 0  0.15 0.6 0  0.2 0.6 0  0.25 0.6 0  0.3 0.6 0  0.35 0.6 0  0.4 0.6 0  0.45 0.6 0  0.5 0.6 0  0.55 0.6 0  0.6 0.6 0  0.65 0.6 0  0.7 0.6 0  0.75 0.6 0  0.8 0.6 0  0.85 0.6 0  0.9 0.6 0  0.95 0.6 0  1 0.6 0  0 0.65 0  0.05 0.65 0  0.1 0.65 0  0.15 0.65 0  0.2 0.65 0  0.25 0.65 0  0.3 0.65 0  0.35 0.65 0  0.4 0.65 0  0.45 0.65 0  0.5 0.65 0  0.55 0.65 0  0.6 0.65 0  0.65 0.65 0  0.7 0.65 0  0.75 0.65 0  0.8 0.65 0  0.85 0.65 0  0.9 0.65 0  0.95 0.65 0  1 0.65 0  0 0.7 0  0.05 0.7 0  0.1 0.7 0  0.15 0.7 0  0.2 0.7 0  0.25 0.7 0  0.3 0.7 0  0.35 0.7 0  0.4 0.7 0  0.45 0.7 0  0.5 0.7 0  0.55 0.7 0  0.6 0.7 0  0.65 0.7 0  0.7 0.7 0  0.75 0.7 0  0.8 0.7 0  0.85 0.7 0  0.9 0.7 0  0.95 0.7 0  1 0.7 0  0 0.75 0  0.05 0.75 0  0.1 0.75 0  0.15 0.75 0  0.2 0.75 0  0.25 0.75 0  0.3 0.75 0  0.35 0.75 0  0.4 0.75 0  0.45 0.75 0  0.5 0.75 0  0.55 0.75 0  0.6 0.75 0  0.65 0.75 0  0.7 0.75 0  0.75 0.75 0  0.8 0.75 0  0.85 0.75 0  0.9 0.75 0  0.95 0.75 0  1 0.75 0  0 0.8 0  0.05 0.8 0  0.1 0.8 0  0.15 0.8 0  0.2 0.8 0  0.25 0.8 0  0.3 0.8 0  0.35 0.8 0  0.4 0.8 0  0.45 0.8 0  0.5 0.8 0  0.55 0.8 0  0.6 0.8 0  0.65 0.8 0  0.7 0.8 0  0.75 0.8 0  0.8 0.8 0  0.85 0.8 0  0.9 0.8 0  0.95 0.8 0  1 0.8 0  0 0.85 0  0.05 0.85 0  0.1 0.85 0  0.15 0.85 0  0.2 0.85 0  0.25 0.85 0  0.3 0.85 0  0.35 0.85 0  0.4 0.85 0  0.45 0.85 0  0.5 0.85 0  0.55 0.85 0  0.6 0.85 0  0.65 0.85 0  0.7 0.85 0  0.75 0.85 0  0.8 0.85 0  0.85 0.85 0  0.9 0.85 0  0.95 0.85 0  1 0.85 0  0 0.9 0  0.05 0.9 0  0.1 0.9 0  0.15 0.9 0  0.2 0.9 0  0.25 0.9 0  0.3 0.9 0  0.35 0.9 0  0.4 0.9 0  0.45 0.9 0  0.5 0.9 0  0.55 0.9 0  0.6 0.9 0  0.65 0.9 0  0.7 0.9 0  0.75 0.9 0  0.8 0.9 0  0.85 0.9 0  0.9 0.9 0  0.95 0.9 0  1 0.9 0  0 0.95 0  0.05 0.95 0  0.1 0.95 0  0.15 0.95 0  0.2 0.95 0  0.25 0.95 0  0.3 0.95 0  0.35 0.95 0  0.4 0.95 0  0.45 0.95 0  0.5 0.95 0  0.55 0.95 0  0.6 0.95 0  0.65 0.95 0  0.7 0.95 0  0.75 0.95 0  0.8 0.95 0  0.85 0.95 0  0.9 0.95 0  0.95 0.95 0  1 0.95 0  0 1 0  0.05 1 0  0.1 1 0  0.15 1 0  0.2 1 0  0.25 1 0  0.3 1 0  0.35 1 0  0.4 1 0  0.45 1 0  0.5 1 0  0.55 1 0  0.6 1 0  0.65 1 0  0.7 1 0  0.75 1 0  0.8 1 0  0.85 1 0  0.9 1 0  0.95 1 0  1 1 0  </DataArray>
</Points>
<Cells>
[...]
<PointData  Scalars="f_6847"> 
<DataArray  type="Float64"  Name="f_6847"  format="ascii">1.3627197144680780e+01  5.2587847893135740e+00  1.0809535975287437e+01  5.0429723703458391e+00  8.1023117523233719e+00  6.2053702519378344e+00  5.3898346612642474e+00  7.7930798476858714e+00  3.2336665077220492e+00  9.0193312981288152e+00  2.1967365104499592e+00  9.3611618120326554e+00  2.5795485655155432e+00  8.7024858228001456e+00  4.3036792387080407e+00  7.3734873947588326e+00  6.9527773449980170e+00  6.0726866851279979e+00  9.9851765612534820e+00  5.7924123881452374e+00  1.3367957954995637e+01  5.2587847453466710e+00  1.5170153358080356e+01  2.2581909524792277e+01  2.6018669702279535e+01  2.9870720842594352e+01  3.2080284045375890e+01  3.3870543868527776e+01  3.5713875986830388e+01  3.5898893243268404e+01  3.7480430653660612e+01  3.6480512863014432e+01  3.7540190006684391e+01  3.5785312517984714e+01  3.5872960852758482e+01  3.3682192864653771e+01  3.2285227633088013e+01  2.9673038859314875e+01  2.6204972635557645e+01  2.2463520584790377e+01  1.5377846975728554e+01  5.7924124319858254e+00  1.0809536054879478e+01  2.2581909539846635e+01  3.3330839574363253e+01  4.1581345469283221e+01  4.8284534068229569e+01  5.3378001397930475e+01  5.7302149145093672e+01  6.0297360232590719e+01  6.2172221537480283e+01  6.3527788402529048e+01  6.3709507311543646e+01  6.3538520519574732e+01  6.2153074400545499e+01  6.0326065883805271e+01  5.7270686283483258e+01  5.3415448128352786e+01  4.8251840426129043e+01  4.1612618275244465e+01  3.3287356855563118e+01  2.2463520569615106e+01  9.9851764817596802e+00  5.0429722621071020e+00  2.6018669683763687e+01  4.1581345465627862e+01  5.3695998531321571e+01  6.3314116315333216e+01  7.0852321007855977e+01  7.6671018519683074e+01  8.1010361619018113e+01  8.3974611329937133e+01  8.5759122468284829e+01  8.6301432321560867e+01  8.5761381540806639e+01  8.3972055204499256e+01  8.1016545172727092e+01  7.6667158615262949e+01  7.0861071409523319e+01  6.3312028278122064e+01  5.3710664483751309e+01  4.1612618278927123e+01  2.6204972654113309e+01  6.0726867932971453e+00  8.1023118786430182e+00  2.9870720864520891e+01  4.8284534071950937e+01  6.3314116316087478e+01  7.5432632563350083e+01  8.5057030270910388e+01  9.2531708812171232e+01  9.8112191864366025e+01  1.0197139488944759e+02  1.0424786352543322e+02  1.0499108830236209e+02  1.0424866625447908e+02  1.0197176208214532e+02  9.8114471635163710e+01  9.2532588061636162e+01  8.5060284419069220e+01  7.5433281211828742e+01  6.3312028277363162e+01  4.8251840422397386e+01  2.9673038837355527e+01  6.9527772187149566e+00  6.2053701197078404e+00  3.2080284022450016e+01  5.3378001393940870e+01  7.0852321007182908e+01  8.5057030270770994e+01  9.6425664096034296e+01  1.0530288159892426e+02  1.1195325813882390e+02  1.1657008304807934e+02  1.1928974828031423e+02  1.2018651736128129e+02  1.1929027764707874e+02  1.1657091693756010e+02  1.1195478935975828e+02  1.0530452345732915e+02  9.6428165657156754e+01  8.5060284419208614e+01  7.0861071410195621e+01  5.3415448132341666e+01  3.2285227656011386e+01  7.3734875269902602e+00  5.3898347866400425e+00  3.3870543890289937e+01  5.7302149148868402e+01  7.6671018520341434e+01  9.2531708812281536e+01  1.0530288159894754e+02  1.1532058920785464e+02  1.2284959761714573e+02  1.2808913048381271e+02  1.3117862024340567e+02  1.3219932888045986e+02  1.3117905072538920e+02  1.2808993943724676e+02  1.2285082345851697e+02  1.1532206204083734e+02  1.0530452345730592e+02  9.2532588061526482e+01  7.6667158614607430e+01  5.7270686279719904e+01  3.3682192842921417e+01  4.3036791132935521e+00  7.7930797412634876e+00  3.5713875968340140e+01  6.0297360229377666e+01  8.1010361618460365e+01  9.8112191864268354e+01  1.1195325813880758e+02  1.2284959761714215e+02  1.3106034985228430e+02  1.3678486307988553e+02  1.4016394672856777e+02  1.4128113268324378e+02  1.4016428718657818e+02  1.3678552405961278e+02  1.3106131745000252e+02  1.2285082345852037e+02  1.1195478935977411e+02  9.8114471635259790e+01  8.1016545173278757e+01  6.0326065886996304e+01  3.5872960871192014e+01  8.7024859292949817e+00  3.2336665849203943e+00  3.5898893256703445e+01  6.2172221539818239e+01  8.3974611330344047e+01  1.0197139488951824e+02  1.1657008304809170e+02  1.2808913048381464e+02  1.3678486307988587e+02  1.4285543613380486e+02  1.4644172736285933e+02  1.4762789796490350e+02  1.4644196368619430e+02  1.4285589630175312e+02  1.3678552405961238e+02  1.2808993943724479e+02  1.1657091693754801e+02  1.0197176208207640e+02  8.3972055204100243e+01  6.2153074398237237e+01  3.5785312504626987e+01  2.5795484882180792e+00  9.0193312576047564e+00  3.7480430646577446e+01  6.3527788401290991e+01  8.5759122468068412e+01  1.0424786352539533e+02  1.1928974828030755e+02  1.3117862024340440e+02  1.4016394672856748e+02  1.4644172736285924e+02  1.5015229612179792e+02  1.5137984153072611e+02  1.5015241728271499e+02  1.4644196368619438e+02  1.4016428718657846e+02  1.3117905072539031e+02  1.1929027764708472e+02  1.0424866625451456e+02  8.5761381541013535e+01  6.3538520520777716e+01  3.7540190013676792e+01  9.3611618526729892e+00  2.1967365103888574e+00  3.6480512863062067e+01  6.3709507311561929e+01  8.6301432321565741e+01  1.0499108830236315e+02  1.2018651736128146e+02  1.3219932888045983e+02  1.4128113268324370e+02  1.4762789796490341e+02  1.5137984153072605e+02  1.5262113622988534e+02  1.5137984153072611e+02  1.4762789796490355e+02  1.4128113268324384e+02  1.3219932888045994e+02  1.2018651736128155e+02  1.0499108830236312e+02  8.6301432321565741e+01  6.3709507311561943e+01  3.6480512863062096e+01  2.1967365103888805e+00  9.3611618526730336e+00  3.7540190013676778e+01  6.3538520520777702e+01  8.5761381541013520e+01  1.0424866625451456e+02  1.1929027764708468e+02  1.3117905072539020e+02  1.4016428718657829e+02  1.4644196368619430e+02  1.5015241728271494e+02  1.5137984153072611e+02  1.5015229612179803e+02  1.4644172736285935e+02  1.4016394672856771e+02  1.3117862024340457e+02  1.1928974828030763e+02  1.0424786352539533e+02  8.5759122468068384e+01  6.3527788401290984e+01  3.7480430646577446e+01  9.0193312576047600e+00  2.5795484882180104e+00  3.5785312504626937e+01  6.2153074398237216e+01  8.3972055204100215e+01  1.0197176208207638e+02  1.1657091693754799e+02  1.2808993943724471e+02  1.3678552405961224e+02  1.4285589630175303e+02  1.4644196368619427e+02  1.4762789796490350e+02  1.4644172736285944e+02  1.4285543613380503e+02  1.3678486307988609e+02  1.2808913048381484e+02  1.1657008304809179e+02  1.0197139488951824e+02  8.3974611330343990e+01  6.2172221539818196e+01  3.5898893256703438e+01  3.2336665849203623e+00  8.7024859292950723e+00  3.5872960871192006e+01  6.0326065886996297e+01  8.1016545173278743e+01  9.8114471635259790e+01  1.1195478935977405e+02  1.2285082345852032e+02  1.3106131745000241e+02  1.3678552405961270e+02  1.4016428718657818e+02  1.4128113268324378e+02  1.4016394672856785e+02  1.3678486307988564e+02  1.3106034985228447e+02  1.2284959761714224e+02  1.1195325813880760e+02  9.8112191864268311e+01  8.1010361618460294e+01  6.0297360229377624e+01  3.5713875968340147e+01  7.7930797412635542e+00  4.3036791132934669e+00  3.3682192842921367e+01  5.7270686279719875e+01  7.6667158614607374e+01  9.2532588061526425e+01  1.0530452345730586e+02  1.1532206204083727e+02  1.2285082345851686e+02  1.2808993943724661e+02  1.3117905072538915e+02  1.3219932888045980e+02  1.3117862024340567e+02  1.2808913048381271e+02  1.2284959761714576e+02  1.1532058920785472e+02  1.0530288159894754e+02  9.2531708812281465e+01  7.6671018520341363e+01  5.7302149148868331e+01  3.3870543890289923e+01  5.3898347866399501e+00  7.3734875269903331e+00  3.2285227656011358e+01  5.3415448132341631e+01  7.0861071410195535e+01  8.5060284419208543e+01  9.6428165657156669e+01  1.0530452345732901e+02  1.1195478935975810e+02  1.1657091693755994e+02  1.1929027764707855e+02  1.2018651736128119e+02  1.1928974828031419e+02  1.1657008304807935e+02  1.1195325813882383e+02  1.0530288159892422e+02  9.6425664096034239e+01  8.5057030270770909e+01  7.0852321007182852e+01  5.3378001393940835e+01  3.2080284022450037e+01  6.2053701197079638e+00  6.9527772187149113e+00  2.9673038837355485e+01  4.8251840422397358e+01  6.3312028277363126e+01  7.5433281211828714e+01  8.5060284419069134e+01  9.2532588061636019e+01  9.8114471635163525e+01  1.0197176208214516e+02  1.0424866625447892e+02  1.0499108830236196e+02  1.0424786352543316e+02  1.0197139488944754e+02  9.8112191864365897e+01  9.2531708812171104e+01  8.5057030270910332e+01  7.5432632563349998e+01  6.3314116316087436e+01  4.8284534071950901e+01  2.9870720864520873e+01  8.1023118786428743e+00  6.0726867932971711e+00  2.6204972654113288e+01  4.1612618278927137e+01  5.3710664483751309e+01  6.3312028278122042e+01  7.0861071409523262e+01  7.6667158615262863e+01  8.1016545172726964e+01  8.3972055204499199e+01  8.5761381540806582e+01  8.6301432321560796e+01  8.5759122468284730e+01  8.3974611329937076e+01  8.1010361619017999e+01  7.6671018519682988e+01  7.0852321007855892e+01  6.3314116315333159e+01  5.3695998531321557e+01  4.1581345465627855e+01  2.6018669683763726e+01  5.0429722621072539e+00  9.9851764817596855e+00  2.2463520569615088e+01  3.3287356855563125e+01  4.1612618275244458e+01  4.8251840426129043e+01  5.3415448128352743e+01  5.7270686283483215e+01  6.0326065883805178e+01  6.2153074400545449e+01  6.3538520519574682e+01  6.3709507311543582e+01  6.3527788402528962e+01  6.2172221537480219e+01  6.0297360232590655e+01  5.7302149145093594e+01  5.3378001397930412e+01  4.8284534068229526e+01  4.1581345469283193e+01  3.3330839574363246e+01  2.2581909539846624e+01  1.0809536054879334e+01  5.7924124319858041e+00  1.5377846975728524e+01  2.2463520584790412e+01  2.6204972635557628e+01  2.9673038859314936e+01  3.2285227633087985e+01  3.3682192864653835e+01  3.5872960852758446e+01  3.5785312517984757e+01  3.7540190006684384e+01  3.6480512863014447e+01  3.7480430653660626e+01  3.5898893243268404e+01  3.5713875986830423e+01  3.3870543868527733e+01  3.2080284045375926e+01  2.9870720842594302e+01  2.6018669702279585e+01  2.2581909524792266e+01  1.5170153358080434e+01  5.2587847453467926e+00  1.3367957954995690e+01  5.7924123881451335e+00  9.9851765612536365e+00  6.0726866851278025e+00  6.9527773449982391e+00  7.3734873947586079e+00  4.3036792387082672e+00  8.7024858227999360e+00  2.5795485655157231e+00  9.3611618120325293e+00  2.1967365104500165e+00  9.0193312981288365e+00  3.2336665077219489e+00  7.7930798476860383e+00  5.3898346612640395e+00  6.2053702519380760e+00  8.1023117523231232e+00  5.0429723703460789e+00  1.0809535975287220e+01  5.2587847893137400e+00  1.3627197144680657e+01  </DataArray> 
</PointData> 
</Piece>
</UnstructuredGrid>
</VTKFile>