<?xml version="1.0"?>
<VTKFile type="UnstructuredGrid"  version="0.1"  >
<UnstructuredGrid>
<Piece  NumberOfPoints="441" NumberOfCells="800">
<Points>
<DataArray  type="Float64"  NumberOfComponents="3"  format="ascii">0 0 0  0.05 0 0  0.1 0 0  0.15 0 0  0.2 0 0  0.25 0 0  0.3 0 0  0.35 0 0  0.4 0 0  0.45 0 0  0.5 0 0  0.55 0 0  0.6 0 0  0.65 0 0  0.7 0 0  0.75 0 0  0.8 0 0  0.85 0 0  0.9 0 0  0.95 0 0  1 0 0  0 0.05 0  0.05 0.05 0  0.1 0.05 0  0.15 0.05 0  0.2 0.05 0  0.25 0.05 0  0.3 0.05 0  0.35 0.05 0  0.4 0.05 0  0.45 0.05 0  0.5 0.05 0  0.55 0.05 0  0.6 0.05 0  0.65 0.05 0  0.7 0.05 0  0.75 0.05 0  0.8 0.05 0  0.85 0.05 0  0.9 0.05 0  0.95 0.05 0  1 0.05 0  0 0.1 0  0.05 0.1 0  0.1 0.1 0  0.15 0.1 0  0.2 0.1 0  0.25 0.1 0  0.3 0.1 0  0.35 0.1 0  0.4 0.1 0  0.45 0.1 0  0.5 0.1 0  0.55 0.1 0  0.6 0.1 0  0.65 0.1 0  0.7 0.1 0  0.75 0.1 0  0.8 0.1 0  0.85 0.1 0  0.9 0.1 0  0.95 0.1 0  1 0.1 0  0 0.15 0  0.05 0.15 0  0.1 0.15 0  0.15 0.15 0  0.2 0.15 0  0.25 0.15 0  0.3 0.15 0  0.35 0.15 0  0.4 0.15 0  0.45 0.15 0  0.5 0.15 0  0.55 0.15 0  0.6 0.15 0  0.65 0.15 0  0.7 0.15 0  0.75 0.15 0  0.8 0.15 0  0.85 0.15 0  0.9 0.15 0  0.95 0.15 0  1 0.15 0  0 0.2 0  0.05 0.2 0  0.1 0.2 0  0.15 0.2 0  0.2 0.2 0  0.25 0.2 0  0.3 0.2 0  0.35 0.2 0  0.4 0.2 0  0.45 0.2 0  0.5 0.2 0  0.55 0.2 0  0.6 0.2 0  0.65 0.2 0  0.7 0.2 0  0.75 0.2 0  0.8 0.2 0  0.85 0.2 0  0.9 0.2 0  0.95 0.2 0  1 0.2 0  0 0.25 0  0.05 0.25 0  0.1 0.25 0  0.15 0.25 0  0.2 0.25 0  0.25 0.25 0  0.3 0.25 0  0.35 0.25 0  0.4 0.25 0  0.45 0.25 0  0.5 0.25 0  0.55 0.25 0  0.6 0.25 0  0.65 0.25 0  0.7 0.25 0  0.75 0.25 0  0.8 0.25 0  0.85 0.25 0  0.9 0.25 0  0.95 0.25 0  1 0.25 0  0 0.3 0  0.05 0.3 0  0.1 0.3 0  0.15 0.3 0  0.2 0.3 0  0.25 0.3 0  0.3 0.3 0  0.35 0.3 0  0.4 0.3 0  0.45 0.3 0  0.5 0.3 0  0.55 0.3 0  0.6 0.3 0  0.65 0.3 0  0.7 0.3 0  0.75 0.3 0  0.8 0.3 0  0.85 0.3 0  0.9 0.3 0  0.95 0.3 0  1 0.3 0  0 0.35 0  0.05 0.35 0  0.1 0.35 0  0.15 0.35 0  0.2 0.35 0  0.25 0.35 0  0.3 0.35 0  0.35 0.35 0  0.4 0.35 0  0.45 0.35 0  0.5 0.35 0  0.55 0.35 0  0.6 0.35 0  0.65 0.35 0  0.7 0.35 0  0.75 0.35 0  0.8 0.35 0  0.85 0.35 0  0.9 0.35 0  0.95 0.35 0  1 0.35 0  0 0.4 0  0.05 0.4 0  0.1 0.4 0  0.15 0.4 0  0.2 0.4 0  0.25 0.4 0  0.3 0.4 0  0.35 0.4 0  0.4 0.4 0  0.45 0.4 0  0.5 0.4 0  0.55 0.4 0  0.6 0.4 0  0.65 0.4 0  0.7 0.4 0  0.75 0.4 0  0.8 0.4 0  0.85 0.4 0  0.9 0.4 0  0.95 0.4 0  1 0.4 0  0 0.45 0  0.05 0.45 0  0.1 0.45 0  0.15 0.45 0  0.2 0.45 0  0.25 0.45 0  0.3 0.45 0  0.35 0.45 0  0.4 0.45 0  0.45 0.45 0  0.5 0.45 0  0.55 0.45 0  0.6 0.45 0  0.65 0.45 0  0.7 0.45 0  0.75 0.45 0  0.8 0.45 0  0.85 0.45 0  0.9 0.45 0  0.95 0.45 0  1 0.45 0  0 0.5 0  0.05 0.5 0  0.1 0.5 0  0.15 0.5 0  0.2 0.5 0  0.25 0.5 0  0.3 0.5 0  0.35 0.5 0  0.4 0.5 0  0.45 0.5 0  0.5 0.5 0  0.55 0.5 0  0.6 0.5 0  0.65 0.5 0  0.7 0.5 0  0.75 0.5 0  0.8 0.5 0  0.85 0.5 0  0.9 0.5 0  0.95 0.5 0  1 0.5 0  0 0.55 0  0.05 0.55 0  0.1 0.55 0  0.15 0.55 0  0.2 0.55 0  0.25 0.55 0  0.3 0.55 0  0.35 0.55 0  0.4 0.55 0  0.45 0.55 0  0.5 0.55 0  0.55 0.55 0  0.6 0.55 0  0.65 0.55 0  0.7 0.55 0  0.75 0.55 0  0.8 0.55 0  0.85 0.55 0  0.9 0.55 0  0.95 0.55 0  1 0.55 0  0 0.6 0  0.05 0.6 0  0.1 0.6 0  0.15 0.6 0  0.2 0.6 0  0.25 0.6 0  0.3 0.6 0  0.35 0.6 0  0.4 0.6 0  0.45 0.6 0  0.5 0.6 0  0.55 0.6 0  0.6 0.6 0  0.65 0.6 0  0.7 0.6 0  0.75 0.6 0  0.8 0.6 0  0.85 0.6 0  0.9 0.6 0  0.95 0.6 0  1 0.6 0  0 0.65 0  0.05 0.65 0  0.1 0.65 0  0.15 0.65 0  0.2 0.65 0  0.25 0.65 0  0.3 0.65 0  0.35 0.65 0  0.4 0.65 0  0.45 0.65 0  0.5 0.65 0  0.55 0.65 0  0.6 0.65 0  0.65 0.65 0  0.7 0.65 0  0.75 0.65 0  0.8 0.65 0  0.85 0.65 0  0.9 0.65 0  0.95 0.65 0  1 0.65 0  0 0.7 0  0.05 0.7 0  0.1 0.7 0  0.15 0.7 0  0.2 0.7 0  0.25 0.7 0  0.3 0.7 0  0.35 0.7 0  0.4 0.7 0  0.45 0.7 0  0.5 0.7 0  0.55 0.7 0  0.6 0.7 0  0.65 0.7 0  0.7 0.7 0  0.75 0.7 0  0.8 0.7 0  0.85 0.7 0  0.9 0.7 0  0.95 0.7 0  1 0.7 0  0 0.75 0  0.05 0.75 0  0.1 0.75 0  0.15 0.75 0  0.2 0.75 0  0.25 0.75 0  0.3 0.75 0  0.35 0.75 0  0.4 0.75 0  0.45 0.75 0  0.5 0.75 0  0.55 0.75 0  0.6 0.75 0  0.65 0.75 0  0.7 0.75 0  0.75 0.75 0  0.8 0.75 0  0.85 0.75 0  0.9 0.75 0  0.95 0.75 0  1 0.75 0  0 0.8 0  0.05 0.8 0  0.1 0.8 0  0.15 0.8 0  0.2 0.8 0  0.25 0.8 0  0.3 0.8 0  0.35 0.8 0  0.4 0.8 0  0.45 0.8 0  0.5 0.8 0  0.55 0.8 0  0.6 0.8 0  0.65 0.8 0  0.7 0.8 0  0.75 0.8 0  0.8 0.8 0  0.85 0.8 0  0.9 0.8 0  0.95 0.8 0  1 0.8 0  0 0.85 0  0.05 0.85 0  0.1 0.85 0  0.15 0.85 0  0.2 0.85 0  0.25 0.85 0  0.3 0.85 0  0.35 0.85 0  0.4 0.85 0  0.45 0.85 0  0.5 0.85 0  0.55 0.85 0  0.6 0.85 0  0.65 0.85 0  0.7 0.85 0  0.75 0.85 0  0.8 0.85 0  0.85 0.85 0  0.9 0.85 0  0.95 0.85 0  1 0.85 0  0 0.9 0  0.05 0.9 0  0.1 0.9 0  0.15 0.9 0  0.2 0.9 0  0.25 0.9 0  0.3 0.9 0  0.35 0.9 0  0.4 0.9 0  0.45 0.9 0  0.5 0.9 0  0.55 0.9 0  0.6 0.9 0  0.65 0.9 0  0.7 0.9 0  0.75 0.9 0  0.8 0.9 0  0.85 0.9 0  0.9 0.9 0  0.95 0.9 0  1 0.9 0  0 0.95 0  0.05 0.95 0  0.1 0.95 0  0.15 0.95 0  0.2 0.95 0  0.25 0.95 0  0.3 0.95 0  0.35 0.95 0  0.4 0.95 0  0.45 0.95 0  0.5 0.95 0  0.55 0.95 0  0.6 0.95 0  0.65 0.95 0  0.7 0.95 0  0.75 0.95 0  0.8 0.95 0  0.85 0.95 0  0.9 0.95 0  0.95 0.95 0  1 0.95 0  0 1 0  0.05 1 0  0.1 1 0  0.15 1 0  0.2 1 0  0.25 1 0  0.3 1 0  0.35 1 0  0.4 1 0  0.45 1 0  0.5 1 0  0.55 1 0  0.6 1 0  0.65 1 0  0.7 1 0  0.75 1 0  0.8 1 0  0.85 1 0  0.9 1 0  0.95 1 0  1 1 0  </DataArray>
</Points>
<Cells>
[...]
<PointData  Scalars="f_6847"> 
<DataArray  type="Float64"  Name="f_6847"  format="ascii">1.3630526823503020e+01  5.2548382432325216e+00  1.0808153911140234e+01  5.0369799516343434e+00  8.0961815893336286e+00  6.1982420228726909e+00  5.3795373746877058e+00  7.7854082542565175e+00  3.2205549282594261e+00  9.0114225554076501e+00  2.1827123527948409e+00  9.3531595078514638e+00  2.5666862142668232e+00  8.6945661282819664e+00  4.2938043313656724e+00  7.3660424812878214e+00  6.9471125600552783e+00  6.0664164039733874e+00  9.9841548633701596e+00  5.7883140040549943e+00  1.3371424192478667e+01  5.2548328832713427e+00  1.5179647708813254e+01  2.2604538114322278e+01  2.6052179486660251e+01  2.9914900247421844e+01  3.2133801231313669e+01  3.3931615439605594e+01  3.5781917971122581e+01  3.5970736373285199e+01  3.7556058883568873e+01  3.6556001732449957e+01  3.7615690474477923e+01  3.5856983498172760e+01  3.5940648511416761e+01  3.3742953233110185e+01  3.2338250020485958e+01  2.9716841350596695e+01  2.6237991105265184e+01  2.2485836813397100e+01  1.5387051866687377e+01  5.7883193486184945e+00  1.0808163614126578e+01  2.2604539949583344e+01  3.3378490087763822e+01  4.1652763289516898e+01  4.8378034364258205e+01  5.3491162300860594e+01  5.7432015817971376e+01  6.0440805235958344e+01  6.2325357844436986e+01  6.3687056091348765e+01  6.3870528469752308e+01  6.3697587007227121e+01  6.2305832974006684e+01  6.0468951925579070e+01  5.7399882842081460e+01  5.3527828264345203e+01  4.8344555689074774e+01  4.1683273053442925e+01  3.3334409015443917e+01  2.2485834963393700e+01  9.9841451723582306e+00  5.0369667563583480e+00  2.6052177229412298e+01  4.1652762843897484e+01  5.3803301199046153e+01  6.3454547076773842e+01  7.1022285541952584e+01  7.6866181461333412e+01  8.1225802071751730e+01  8.4204828941092842e+01  8.5998348242107383e+01  8.6543557839679480e+01  8.6000353498422214e+01  8.4201782157925905e+01  8.1231282580799146e+01  7.6861456823258081e+01  7.1030061282873916e+01  6.3451459195325270e+01  5.3817027346705864e+01  4.1683273502392787e+01  2.6237993367365785e+01  6.0664295907698769e+00  8.0961969888355512e+00  2.9914902920465046e+01  4.8378034817926320e+01  6.3454547168725114e+01  7.5616410038929274e+01  8.5279474459331340e+01  9.2787169136133159e+01  9.8394198604211851e+01  1.0227280144643819e+02  1.0456105639836194e+02  1.0530814108252028e+02  1.0456158152885534e+02  1.0227263037291840e+02  9.8395711697348432e+01  9.2787104403170332e+01  8.5281673174858639e+01  7.5615978818560762e+01  6.3451459102806254e+01  4.8344555234150931e+01  2.9716838673550484e+01  6.9470971650084392e+00  6.1982259028462696e+00  3.2133798436445254e+01  5.3491161814493204e+01  7.1022285459902008e+01  8.5279474442337232e+01  9.6694935074154571e+01  1.0561214921532809e+02  1.1229468991018491e+02  1.1693503803439394e+02  1.1966900006705009e+02  1.2057048006089818e+02  1.1966925511168783e+02  1.1693534013260333e+02  1.1229546532832457e+02  1.0561286202461019e+02  9.6696401785232240e+01  8.5281673191853542e+01  7.1030061364831340e+01  5.3527828750623975e+01  3.2338252815050005e+01  7.3660586014958529e+00  5.3795526591247782e+00  3.3931618092610229e+01  5.7432016278143522e+01  7.6866181541592638e+01  9.2787169149580123e+01  1.0561214921817161e+02  1.1567582590715998e+02  1.2324181118556699e+02  1.2850840005188104e+02  1.3161434722400301e+02  1.3264050316425232e+02  1.3161452988401061e+02  1.2850872886594098e+02  1.2324235553591565e+02  1.1567646244992963e+02  1.0561286202178125e+02  9.2787104389801982e+01  7.6861456743343524e+01  5.7399882383296024e+01  3.3742950583737155e+01  4.2937890422013165e+00  7.7853952804113851e+00  3.5781915716994540e+01  6.0440804844259809e+01  8.1225802003759441e+01  9.8394198592311838e+01  1.1229468990820411e+02  1.2324181118513657e+02  1.3149342318041460e+02  1.3724784634467832e+02  1.4064513888283616e+02  1.4176837659939784e+02  1.4064527684867065e+02  1.3724811520428807e+02  1.3149383472701658e+02  1.2324235553633538e+02  1.1229546533026259e+02  9.8395711709069474e+01  8.1231282648056819e+01  6.0468952314599363e+01  3.5940650758629978e+01  8.6945791109717891e+00  3.2205643394289822e+00  3.5970738011138252e+01  6.2325358129458117e+01  8.4204828990701330e+01  1.0227280145505358e+02  1.1693503803590662e+02  1.2850840005212842e+02  1.3724784634473400e+02  1.4335043147562274e+02  1.4695622759978579e+02  1.4814890605355635e+02  1.4695632098765893e+02  1.4335061495216308e+02  1.3724811520423378e+02  1.2850872886570107e+02  1.1693534013113535e+02  1.0227263036452388e+02  8.4201782109282405e+01  6.2305832692608305e+01  3.5856981869741780e+01  2.5666767909999240e+00  9.0114176151640564e+00  3.7556058020068285e+01  6.3687055940423924e+01  8.5998348215729592e+01  1.0456105639374722e+02  1.1966900006624449e+02  1.3161434722385866e+02  1.4064513888281260e+02  1.4695622759977988e+02  1.5068710747913582e+02  1.5192145543991390e+02  1.5068715478583013e+02  1.4695632098766379e+02  1.4064527684869034e+02  1.3161452988413964e+02  1.1966925511242961e+02  1.0456158153319397e+02  8.6000353523645899e+01  6.3697587153881578e+01  3.7615691326914067e+01  9.3531644622825816e+00  2.1827123453419510e+00  3.6556001738258054e+01  6.3870528471988337e+01  8.6543557840277842e+01  1.0530814108265859e+02  1.2057048006092677e+02  1.3264050316425730e+02  1.4176837659939835e+02  1.4814890605355629e+02  1.5192145543991393e+02  1.5316967707417624e+02  1.5192145543991396e+02  1.4814890605355643e+02  1.4176837659939844e+02  1.3264050316425735e+02  1.2057048006092683e+02  1.0530814108265858e+02  8.6543557840277842e+01  6.3870528471988337e+01  3.6556001738258082e+01  2.1827123453419692e+00  9.3531644622826562e+00  3.7615691326914046e+01  6.3697587153881557e+01  8.6000353523645856e+01  1.0456158153319397e+02  1.1966925511242952e+02  1.3161452988413953e+02  1.4064527684869020e+02  1.4695632098766370e+02  1.5068715478583010e+02  1.5192145543991390e+02  1.5068710747913593e+02  1.4695622759978002e+02  1.4064513888281280e+02  1.3161434722385877e+02  1.1966900006624454e+02  1.0456105639374722e+02  8.5998348215729592e+01  6.3687055940423924e+01  3.7556058020068299e+01  9.0114176151640937e+00  2.5666767909998085e+00  3.5856981869741730e+01  6.2305832692608305e+01  8.4201782109282405e+01  1.0227263036452388e+02  1.1693534013113531e+02  1.2850872886570093e+02  1.3724811520423364e+02  1.4335061495216300e+02  1.4695632098765887e+02  1.4814890605355635e+02  1.4695622759978582e+02  1.4335043147562291e+02  1.3724784634473417e+02  1.2850840005212862e+02  1.1693503803590669e+02  1.0227280145505358e+02  8.4204828990701301e+01  6.2325358129458067e+01  3.5970738011138245e+01  3.2205643394288805e+00  8.6945791109719295e+00  3.5940650758629978e+01  6.0468952314599385e+01  8.1231282648056819e+01  9.8395711709069488e+01  1.1229546533026254e+02  1.2324235553633528e+02  1.3149383472701649e+02  1.3724811520428801e+02  1.4064527684867062e+02  1.4176837659939784e+02  1.4064513888283625e+02  1.3724784634467841e+02  1.3149342318041471e+02  1.2324181118513663e+02  1.1229468990820412e+02  9.8394198592311824e+01  8.1225802003759398e+01  6.0440804844259780e+01  3.5781915716994575e+01  7.7853952804115414e+00  4.2937890422011735e+00  3.3742950583737098e+01  5.7399882383295996e+01  7.6861456743343467e+01  9.2787104389801954e+01  1.0561286202178124e+02  1.1567646244992952e+02  1.2324235553591555e+02  1.2850872886594084e+02  1.3161452988401047e+02  1.3264050316425224e+02  1.3161434722400301e+02  1.2850840005188107e+02  1.2324181118556703e+02  1.1567582590716005e+02  1.0561214921817165e+02  9.2787169149580066e+01  7.6866181541592596e+01  5.7432016278143500e+01  3.3931618092610208e+01  5.3795526591245801e+00  7.3660586014959950e+00  3.2338252815049991e+01  5.3527828750623939e+01  7.1030061364831269e+01  8.5281673191853457e+01  9.6696401785232140e+01  1.0561286202461004e+02  1.1229546532832434e+02  1.1693534013260310e+02  1.1966925511168758e+02  1.2057048006089801e+02  1.1966900006704999e+02  1.1693503803439394e+02  1.1229468991018486e+02  1.0561214921532806e+02  9.6694935074154529e+01  8.5279474442337161e+01  7.1022285459901980e+01  5.3491161814493182e+01  3.2133798436445318e+01  6.1982259028464988e+00  6.9470971650083131e+00  2.9716838673550416e+01  4.8344555234150889e+01  6.3451459102806204e+01  7.5615978818560677e+01  8.5281673174858525e+01  9.2787104403170162e+01  9.8395711697348233e+01  1.0227263037291820e+02  1.0456158152885514e+02  1.0530814108252011e+02  1.0456105639836181e+02  1.0227280144643809e+02  9.8394198604211766e+01  9.2787169136133073e+01  8.5279474459331269e+01  7.5616410038929217e+01  6.3454547168725107e+01  4.8378034817926313e+01  2.9914902920465021e+01  8.0961969888353131e+00  6.0664295907699897e+00  2.6237993367365775e+01  4.1683273502392787e+01  5.3817027346705856e+01  6.3451459195325228e+01  7.1030061282873831e+01  7.6861456823257981e+01  8.1231282580799004e+01  8.4201782157925820e+01  8.6000353498422086e+01  8.6543557839679323e+01  8.5998348242107241e+01  8.4204828941092742e+01  8.1225802071751616e+01  7.6866181461333326e+01  7.1022285541952513e+01  6.3454547076773807e+01  5.3803301199046167e+01  4.1652762843897484e+01  2.6052177229412354e+01  5.0369667563585709e+00  9.9841451723581418e+00  2.2485834963393668e+01  3.3334409015443910e+01  4.1683273053442917e+01  4.8344555689074753e+01  5.3527828264345153e+01  5.7399882842081396e+01  6.0468951925578942e+01  6.2305832974006591e+01  6.3697587007227014e+01  6.3870528469752209e+01  6.3687056091348687e+01  6.2325357844436908e+01  6.0440805235958280e+01  5.7432015817971305e+01  5.3491162300860530e+01  4.8378034364258184e+01  4.1652763289516891e+01  3.3378490087763822e+01  2.2604539949583327e+01  1.0808163614126382e+01  5.7883193486185611e+00  1.5387051866687390e+01  2.2485836813397121e+01  2.6237991105265198e+01  2.9716841350596731e+01  3.2338250020485951e+01  3.3742953233110207e+01  3.5940648511416732e+01  3.5856983498172774e+01  3.7615690474477894e+01  3.6556001732449964e+01  3.7556058883568873e+01  3.5970736373285192e+01  3.5781917971122589e+01  3.3931615439605572e+01  3.2133801231313697e+01  2.9914900247421826e+01  2.6052179486660297e+01  2.2604538114322274e+01  1.5179647708813329e+01  5.2548328832714901e+00  1.3371424192478635e+01  5.7883140040549979e+00  9.9841548633701791e+00  6.0664164039733448e+00  6.9471125600553387e+00  7.3660424812877459e+00  4.2938043313657897e+00  8.6945661282818367e+00  2.5666862142669697e+00  9.3531595078513430e+00  2.1827123527949293e+00  9.0114225554076164e+00  3.2205549282594133e+00  7.7854082542565797e+00  5.3795373746876116e+00  6.1982420228728188e+00  8.0961815893334883e+00  5.0369799516344855e+00  1.0808153911140087e+01  5.2548382432326406e+00  1.3630526823502910e+01  </DataArray> 
</PointData> 
</Piece>
</UnstructuredGrid>
</VTKFile>