<?xml version="1.0"?>
<VTKFile type="UnstructuredGrid"  version="0.1"  >
<UnstructuredGrid>
<Piece  NumberOfPoints="441" NumberOfCells="800">
<Points>
<DataArray  type="Float64"  NumberOfComponents="3"  format="ascii">0 0 0  0.05 0 0  0.1 0 0  0.15 0 0  0.2 0 0  0.25 0 0  0.3 0 0  0.35 0 0  0.4 0 0  0.45 0 0  0.5 0 0  0.55 0 0  0.6 0 0  0.65 0 0  0.7 0 0  0.75 0 0  0.8 0 0  0.85 0 0  0.9 0 0  0.95 0 0  1 0 0  0 0.05 0  0.05 0.05 0  0.1 0.05 0  0.15 0.05 0  0.2 0.05 0  0.25 0.05 0  0.3 0.05 0  0.35 0.05 0  0.4 0.05 0  0.45 0.05 0  0.5 0.05 0  0.55 0.05 0  0.6 0.05 0  0.65 0.05 0  0.7 0.05 0  0.75 0.05 0  0.8 0.05 0  0.85 0.05 0  0.9 0.05 0  0.95 0.05 0  1 0.05 0  0 0.1 0  0.05 0.1 0  0.1 0.1 0  0.15 0.1 0  0.2 0.1 0  0.25 0.1 0  0.3 0.1 0  0.35 0.1 0  0.4 0.1 0  0.45 0.1 0  0.5 0.1 0  0.55 0.1 0  0.6 0.1 0  0.65 0.1 0  0.7 0.1 0  0.75 0.1 0  0.8 0.1 0  0.85 0.1 0  0.9 0.1 0  0.95 0.1 0  1 0.1 0  0 0.15 0  0.05 0.15 0  0.1 0.15 0  0.15 0.15 0  0.2 0.15 0  0.25 0.15 0  0.3 0.15 0  0.35 0.15 0  0.4 0.15 0  0.45 0.15 0  0.5 0.15 0  0.55 0.15 0  0.6 0.15 0  0.65 0.15 0  0.7 0.15 0  0.75 0.15 0  0.8 0.15 0  0.85 0.15 0  0.9 0.15 0  0.95 0.15 0  1 0.15 0  0 0.2 0  0.05 0.2 0  0.1 0.2 0  0.15 0.2 0  0.2 0.2 0  0.25 0.2 0  0.3 0.2 0  0.35 0.2 0  0.4 0.2 0  0.45 0.2 0  0.5 0.2 0  0.55 0.2 0  0.6 0.2 0  0.65 0.2 0  0.7 0.2 0  0.75 0.2 0  0.8 0.2 0  0.85 0.2 0  0.9 0.2 0  0.95 0.2 0  1 0.2 0  0 0.25 0  0.05 0.25 0  0.1 0.25 0  0.15 0.25 0  0.2 0.25 0  0.25 0.25 0  0.3 0.25 0  0.35 0.25 0  0.4 0.25 0  0.45 0.25 0  0.5 0.25 0  0.55 0.25 0  0.6 0.25 0  0.65 0.25 0  0.7 0.25 0  0.75 0.25 0  0.8 0.25 0  0.85 0.25 0  0.9 0.25 0  0.95 0.25 0  1 0.25 0  0 0.3 0  0.05 0.3 0  0.1 0.3 0  0.15 0.3 0  0.2 0.3 0  0.25 0.3 0  0.3 0.3 0  0.35 0.3 0  0.4 0.3 0  0.45 0.3 0  0.5 0.3 0  0.55 0.3 0  0.6 0.3 0  0.65 0.3 0  0.7 0.3 0  0.75 0.3 0  0.8 0.3 0  0.85 0.3 0  0.9 0.3 0  0.95 0.3 0  1 0.3 0  0 0.35 0  0.05 0.35 0  0.1 0.35 0  0.15 0.35 0  0.2 0.35 0  0.25 0.35 0  0.3 0.35 0  0.35 0.35 0  0.4 0.35 0  0.45 0.35 0  0.5 0.35 0  0.55 0.35 0  0.6 0.35 0  0.65 0.35 0  0.7 0.35 0  0.75 0.35 0  0.8 0.35 0  0.85 0.35 0  0.9 0.35 0  0.95 0.35 0  1 0.35 0  0 0.4 0  0.05 0.4 0  0.1 0.4 0  0.15 0.4 0  0.2 0.4 0  0.25 0.4 0  0.3 0.4 0  0.35 0.4 0  0.4 0.4 0  0.45 0.4 0  0.5 0.4 0  0.55 0.4 0  0.6 0.4 0  0.65 0.4 0  0.7 0.4 0  0.75 0.4 0  0.8 0.4 0  0.85 0.4 0  0.9 0.4 0  0.95 0.4 0  1 0.4 0  0 0.45 0  0.05 0.45 0  0.1 0.45 0  0.15 0.45 0  0.2 0.45 0  0.25 0.45 0  0.3 0.45 0  0.35 0.45 0  0.4 0.45 0  0.45 0.45 0  0.5 0.45 0  0.55 0.45 0  0.6 0.45 0  0.65 0.45 0  0.7 0.45 0  0.75 0.45 0  0.8 0.45 0  0.85 0.45 0  0.9 0.45 0  0.95 0.45 0  1 0.45 0  0 0.5 0  0.05 0.5 0  0.1 0.5 0  0.15 0.5 0  0.2 0.5 0  0.25 0.5 0  0.3 0.5 0  0.35 0.5 0  0.4 0.5 0  0.45 0.5 0  0.5 0.5 0  0.55 0.5 0  0.6 0.5 0  0.65 0.5 0  0.7 0.5 0  0.75 0.5 0  0.8 0.5 0  0.85 0.5 0  0.9 0.5 0  0.95 0.5 0  1 0.5 0  0 0.55 0  0.05 0.55 0  0.1 0.55 0  0.15 0.55 0  0.2 0.55 0  0.25 0.55 0  0.3 0.55 0  0.35 0.55 0  0.4 0.55 0  0.45 0.55 0  0.5 0.55 0  0.55 0.55 0  0.6 0.55 0  0.65 0.55 0  0.7 0.55 0  0.75 0.55 0  0.8 0.55 0  0.85 0.55 0  0.9 0.55 0  0.95 0.55 0  1 0.55 0  0 0.6 0  0.05 0.6 0  0.1 0.6 0  0.15 0.6 0  0.2 0.6 0  0.25 0.6 0  0.3 0.6 0  0.35 0.6 0  0.4 0.6 0  0.45 0.6 0  0.5 0.6 0  0.55 0.6 0  0.6 0.6 0  0.65 0.6 0  0.7 0.6 0  0.75 0.6 0  0.8 0.6 0  0.85 0.6 0  0.9 0.6 0  0.95 0.6 0  1 0.6 0  0 0.65 0  0.05 0.65 0  0.1 0.65 0  0.15 0.65 0  0.2 0.65 0  0.25 0.65 0  0.3 0.65 0  0.35 0.65 0  0.4 0.65 0  0.45 0.65 0  0.5 0.65 0  0.55 0.65 0  0.6 0.65 0  0.65 0.65 0  0.7 0.65 0  0.75 0.65 0  0.8 0.65 0  0.85 0.65 0  0.9 0.65 0  0.95 0.65 0  1 0.65 0  0 0.7 0  0.05 0.7 0  0.1 0.7 0  0.15 0.7 0  0.2 0.7 0  0.25 0.7 0  0.3 0.7 0  0.35 0.7 0  0.4 0.7 0  0.45 0.7 0  0.5 0.7 0  0.55 0.7 0  0.6 0.7 0  0.65 0.7 0  0.7 0.7 0  0.75 0.7 0  0.8 0.7 0  0.85 0.7 0  0.9 0.7 0  0.95 0.7 0  1 0.7 0  0 0.75 0  0.05 0.75 0  0.1 0.75 0  0.15 0.75 0  0.2 0.75 0  0.25 0.75 0  0.3 0.75 0  0.35 0.75 0  0.4 0.75 0  0.45 0.75 0  0.5 0.75 0  0.55 0.75 0  0.6 0.75 0  0.65 0.75 0  0.7 0.75 0  0.75 0.75 0  0.8 0.75 0  0.85 0.75 0  0.9 0.75 0  0.95 0.75 0  1 0.75 0  0 0.8 0  0.05 0.8 0  0.1 0.8 0  0.15 0.8 0  0.2 0.8 0  0.25 0.8 0  0.3 0.8 0  0.35 0.8 0  0.4 0.8 0  0.45 0.8 0  0.5 0.8 0  0.55 0.8 0  0.6 0.8 0  0.65 0.8 0  0.7 0.8 0  0.75 0.8 0  0.8 0.8 0  0.85 0.8 0  0.9 0.8 0  0.95 0.8 0  1 0.8 0  0 0.85 0  0.05 0.85 0  0.1 0.85 0  0.15 0.85 0  0.2 0.85 0  0.25 0.85 0  0.3 0.85 0  0.35 0.85 0  0.4 0.85 0  0.45 0.85 0  0.5 0.85 0  0.55 0.85 0  0.6 0.85 0  0.65 0.85 0  0.7 0.85 0  0.75 0.85 0  0.8 0.85 0  0.85 0.85 0  0.9 0.85 0  0.95 0.85 0  1 0.85 0  0 0.9 0  0.05 0.9 0  0.1 0.9 0  0.15 0.9 0  0.2 0.9 0  0.25 0.9 0  0.3 0.9 0  0.35 0.9 0  0.4 0.9 0  0.45 0.9 0  0.5 0.9 0  0.55 0.9 0  0.6 0.9 0  0.65 0.9 0  0.7 0.9 0  0.75 0.9 0  0.8 0.9 0  0.85 0.9 0  0.9 0.9 0  0.95 0.9 0  1 0.9 0  0 0.95 0  0.05 0.95 0  0.1 0.95 0  0.15 0.95 0  0.2 0.95 0  0.25 0.95 0  0.3 0.95 0  0.35 0.95 0  0.4 0.95 0  0.45 0.95 0  0.5 0.95 0  0.55 0.95 0  0.6 0.95 0  0.65 0.95 0  0.7 0.95 0  0.75 0.95 0  0.8 0.95 0  0.85 0.95 0  0.9 0.95 0  0.95 0.95 0  1 0.95 0  0 1 0  0.05 1 0  0.1 1 0  0.15 1 0  0.2 1 0  0.25 1 0  0.3 1 0  0.35 1 0  0.4 1 0  0.45 1 0  0.5 1 0  0.55 1 0  0.6 1 0  0.65 1 0  0.7 1 0  0.75 1 0  0.8 1 0  0.85 1 0  0.9 1 0  0.95 1 0  1 1 0  </DataArray>
</Points>
<Cells>
[...]
<PointData  Scalars="f_6847"> 
<DataArray  type="Float64"  Name="f_6847"  format="ascii">1.3631270726700913e+01  5.2552420220326672e+00  1.0805518026879620e+01  5.0388058225970118e+00  8.0911186833205875e+00  6.2005155882767875e+00  5.3735710612435676e+00  7.7868058606815946e+00  3.2153684648548460e+00  9.0108404474671193e+00  2.1795809103571706e+00  9.3501834175852387e+00  2.5660725709069556e+00  8.6896830457492538e+00  4.2952649740515643e+00  7.3605129898750583e+00  6.9495392083016938e+00  6.0618528768542550e+00  9.9862508334163866e+00  5.7861165483858450e+00  1.3372198608779637e+01  5.2526644744645914e+00  1.5181768906675471e+01  2.2609153561052128e+01  2.6060207497403873e+01  2.9924129577725505e+01  3.2146428169375490e+01  3.3944623568310064e+01  3.5797660303729131e+01  3.5986394516074355e+01  3.7573162589930064e+01  3.6572865813521659e+01  3.7632354095719094e+01  3.5873386543893787e+01  3.5955232104546326e+01  3.3757163521437505e+01  3.2349425873169686e+01  2.9727269602696360e+01  2.6244825451901903e+01  2.2491266323529160e+01  1.5389108391698960e+01  5.7886866913952355e+00  1.0810184088448013e+01  2.2610036118322729e+01  3.3389136008252876e+01  4.1668826098393559e+01  4.8398815087509696e+01  5.3516560984883064e+01  5.7460919837889477e+01  6.0472947189323364e+01  6.2359502696363776e+01  6.3722675350469984e+01  6.3906502749234100e+01  6.3733089943008764e+01  6.2340029276796116e+01  6.0500781749424917e+01  5.7428857538451432e+01  5.3552819231991542e+01  4.8365378928108498e+01  4.1698950832813964e+01  3.3344921250494082e+01  2.2490376676818119e+01  9.9815905301840946e+00  5.0324603565734503e+00  2.6059122011188585e+01  4.1668611804817360e+01  5.3827274407858567e+01  6.3485899602417582e+01  7.1060278137798548e+01  7.6909764875372900e+01  8.1273951376452104e+01  8.4256251504994339e+01  8.6051801603423073e+01  8.6597652581322578e+01  8.6053737774342963e+01  8.4253118659482681e+01  8.1279242368647331e+01  7.6904885447850447e+01  7.1067796779533637e+01  6.3482632572839499e+01  5.3840790580264020e+01  4.1699166727970315e+01  2.6245913271700285e+01  6.0681942652215959e+00  8.0985241378365007e+00  2.9925415015396705e+01  4.8399033251616061e+01  6.3485943820797729e+01  7.5657468998300203e+01  8.5329176284847634e+01  9.2844240017806172e+01  9.8457206478194450e+01  1.0234013864332915e+02  1.0463103002746858e+02  1.0537897593805977e+02  1.0463149098711288e+02  1.0233985138527341e+02  9.8458542608778359e+01  9.2843970804315390e+01  8.5331131036624839e+01  7.5656796507096743e+01  6.3482588081438706e+01  4.8365160160132376e+01  2.9725982239993520e+01  6.9421358961296322e+00  6.1927636412964473e+00  3.2145084147282859e+01  5.3516327096060941e+01  7.1060238680568744e+01  8.5329168112547123e+01  9.6755094712145208e+01  1.0568124408965237e+02  1.1237097195196226e+02  1.1701657471779329e+02  1.1975373144998657e+02  1.2065626373899201e+02  1.1975392483176751e+02  1.1701675871299126e+02  1.1237157756191093e+02  1.0568175068336606e+02  9.6756330209031020e+01  8.5331139209298527e+01  7.1067836191970770e+01  5.3553053078219619e+01  3.2350769748905982e+01  7.3682650242573926e+00  5.3809211823078167e+00  3.3945899369654228e+01  5.7461141129732084e+01  7.6909803471179814e+01  9.2844246484300442e+01  1.0568124545709586e+02  1.1575519172618452e+02  1.2332943835947350e+02  1.2860207182626152e+02  1.3171169595304852e+02  1.3273906887479416e+02  1.3171182317650880e+02  1.2860229347953555e+02  1.2332983024051187e+02  1.1575564141729049e+02  1.0568174932298464e+02  9.2843964375652533e+01  7.6904847017800549e+01  5.7428636913482570e+01  3.3755889466479331e+01  4.2879125796043320e+00  7.7805668783818973e+00  3.5796576317854623e+01  6.0472758825727091e+01  8.1273918679708984e+01  9.8457200755610103e+01  1.1237097099942557e+02  1.2332943815249716e+02  1.3159017900593309e+02  1.3735128453762687e+02  1.4075264526517597e+02  1.4187723503978324e+02  1.4075273797760920e+02  1.3735146581187951e+02  1.3159046631378348e+02  1.2332983044235179e+02  1.1237157849391957e+02  9.8458548245347032e+01  8.1279274712165758e+01  6.0500968825125128e+01  3.5956312765173813e+01  8.6959262814521576e+00  3.2198941948602755e+00  3.5987182141962975e+01  6.2359639759959016e+01  8.4256275361194483e+01  1.0234014278639575e+02  1.1701657544523285e+02  1.2860207194525623e+02  1.3735128456442686e+02  1.4346102171658922e+02  1.4707117556241556e+02  1.4826530797716191e+02  1.4707123701142041e+02  1.4346114337158622e+02  1.3735146578574719e+02  1.2860229336415398e+02  1.1701675800708328e+02  1.0233984734846852e+02  8.4253095267342175e+01  6.2339893955353730e+01  3.5872603448971191e+01  2.5615410233347760e+00  9.0084647375735702e+00  3.7572747341813738e+01  6.3722602772361938e+01  8.6051788918650360e+01  1.0463102780832412e+02  1.1975373106258976e+02  1.3171169588365092e+02  1.4075264525386697e+02  1.4707117555957896e+02  1.5080659328538388e+02  1.5204246105001215e+02  1.5080662409068464e+02  1.4707123701371606e+02  1.4075273798701645e+02  1.3171182323853202e+02  1.1975392518850501e+02  1.0463149307352612e+02  8.6053749904136581e+01  6.3733160467566286e+01  3.7632764023076611e+01  9.3525659501675680e+00  2.1795773263262106e+00  3.6572868606580492e+01  6.3906503824538198e+01  8.6597652869081898e+01  1.0537897600459083e+02  1.2065626375277277e+02  1.3273906887719588e+02  1.4187723504003040e+02  1.4826530797711146e+02  1.5204246105000556e+02  1.5329223027799338e+02  1.5204246105000558e+02  1.4826530797711152e+02  1.4187723504003051e+02  1.3273906887719593e+02  1.2065626375277279e+02  1.0537897600459077e+02  8.6597652869081898e+01  6.3906503824538198e+01  3.6572868606580521e+01  2.1795773263262168e+00  9.3525659501676248e+00  3.7632764023076589e+01  6.3733160467566272e+01  8.6053749904136566e+01  1.0463149307352622e+02  1.1975392518850501e+02  1.3171182323853188e+02  1.4075273798701627e+02  1.4707123701371594e+02  1.5080662409068458e+02  1.5204246105001215e+02  1.5080659328538397e+02  1.4707117555957905e+02  1.4075264525386712e+02  1.3171169588365098e+02  1.1975373106258982e+02  1.0463102780832412e+02  8.6051788918650303e+01  6.3722602772361860e+01  3.7572747341813738e+01  9.0084647375736111e+00  2.5615410233346831e+00  3.5872603448971141e+01  6.2339893955353752e+01  8.4253095267342175e+01  1.0233984734846855e+02  1.1701675800708327e+02  1.2860229336415389e+02  1.3735146578574708e+02  1.4346114337158610e+02  1.4707123701142035e+02  1.4826530797716191e+02  1.4707117556241559e+02  1.4346102171658936e+02  1.3735128456442703e+02  1.2860207194525634e+02  1.1701657544523292e+02  1.0234014278639573e+02  8.4256275361194440e+01  6.2359639759958945e+01  3.5987182141962961e+01  3.2198941948601996e+00  8.6959262814522802e+00  3.5956312765173813e+01  6.0500968825125156e+01  8.1279274712165758e+01  9.8458548245347060e+01  1.1237157849391956e+02  1.2332983044235169e+02  1.3159046631378337e+02  1.3735146581187942e+02  1.4075273797760914e+02  1.4187723503978324e+02  1.4075264526517597e+02  1.3735128453762690e+02  1.3159017900593318e+02  1.2332943815249718e+02  1.1237097099942552e+02  9.8457200755610060e+01  8.1273918679708885e+01  6.0472758825727048e+01  3.5796576317854637e+01  7.7805668783820110e+00  4.2879125796041633e+00  3.3755889466479289e+01  5.7428636913482570e+01  7.6904847017800520e+01  9.2843964375652490e+01  1.0568174932298456e+02  1.1575564141729038e+02  1.2332983024051174e+02  1.2860229347953543e+02  1.3171182317650869e+02  1.3273906887479407e+02  1.3171169595304849e+02  1.2860207182626149e+02  1.2332943835947349e+02  1.1575519172618451e+02  1.0568124545709584e+02  9.2844246484300356e+01  7.6909803471179742e+01  5.7461141129732020e+01  3.3945899369654214e+01  5.3809211823076772e+00  7.3682650242575889e+00  3.2350769748905982e+01  5.3553053078219584e+01  7.1067836191970727e+01  8.5331139209298470e+01  9.6756330209030892e+01  1.0568175068336592e+02  1.1237157756191073e+02  1.1701675871299111e+02  1.1975392483176731e+02  1.2065626373899191e+02  1.1975373144998650e+02  1.1701657471779329e+02  1.1237097195196219e+02  1.0568124408965231e+02  9.6755094712145137e+01  8.5329168112547038e+01  7.1060238680568702e+01  5.3516327096060898e+01  3.2145084147282901e+01  6.1927636412965974e+00  6.9421358961294217e+00  2.9725982239993463e+01  4.8365160160132341e+01  6.3482588081438664e+01  7.5656796507096686e+01  8.5331131036624740e+01  9.2843970804315234e+01  9.8458542608778160e+01  1.0233985138527323e+02  1.0463149098711267e+02  1.0537897593805963e+02  1.0463103002746847e+02  1.0234013864332906e+02  9.8457206478194294e+01  9.2844240017806072e+01  8.5329176284847492e+01  7.5657468998300132e+01  6.3485943820797694e+01  4.8399033251616032e+01  2.9925415015396684e+01  8.0985241378363444e+00  6.0681942652217966e+00  2.6245913271700303e+01  4.1699166727970329e+01  5.3840790580264013e+01  6.3482632572839449e+01  7.1067796779533538e+01  7.6904885447850347e+01  8.1279242368647203e+01  8.4253118659482595e+01  8.6053737774342864e+01  8.6597652581322507e+01  8.6051801603422945e+01  8.4256251504994239e+01  8.1273951376451961e+01  7.6909764875372787e+01  7.1060278137798448e+01  6.3485899602417526e+01  5.3827274407858560e+01  4.1668611804817346e+01  2.6059122011188609e+01  5.0324603565735915e+00  9.9815905301839098e+00  2.2490376676818084e+01  3.3344921250494068e+01  4.1698950832813949e+01  4.8365378928108470e+01  5.3552819231991478e+01  5.7428857538451361e+01  6.0500781749424796e+01  6.2340029276796024e+01  6.3733089943008693e+01  6.3906502749234043e+01  6.3722675350469920e+01  6.2359502696363684e+01  6.0472947189323285e+01  5.7460919837889385e+01  5.3516560984882986e+01  4.8398815087509639e+01  4.1668826098393531e+01  3.3389136008252855e+01  2.2610036118322718e+01  1.0810184088447889e+01  5.7886866913953829e+00  1.5389108391699017e+01  2.2491266323529160e+01  2.6244825451901939e+01  2.9727269602696367e+01  3.2349425873169714e+01  3.3757163521437505e+01  3.5955232104546305e+01  3.5873386543893780e+01  3.7632354095719108e+01  3.6572865813521673e+01  3.7573162589930085e+01  3.5986394516074348e+01  3.5797660303729131e+01  3.3944623568310050e+01  3.2146428169375497e+01  2.9924129577725491e+01  2.6060207497403887e+01  2.2609153561052128e+01  1.5181768906675520e+01  5.2526644744646784e+00  1.3372198608779527e+01  5.7861165483859667e+00  9.9862508334162552e+00  6.0618528768543802e+00  6.9495392083015926e+00  7.3605129898751214e+00  4.2952649740515385e+00  8.6896830457492449e+00  2.5660725709069738e+00  9.3501834175852423e+00  2.1795809103571564e+00  9.0108404474671495e+00  3.2153684648548015e+00  7.7868058606816568e+00  5.3735710612435126e+00  6.2005155882768443e+00  8.0911186833205289e+00  5.0388058225970687e+00  1.0805518026879557e+01  5.2552420220327223e+00  1.3631270726700853e+01  </DataArray> 
</PointData> 
</Piece>
</UnstructuredGrid>
</VTKFile>