<?xml version="1.0"?>
<VTKFile type="UnstructuredGrid"  version="0.1"  >
<UnstructuredGrid>
<Piece  NumberOfPoints="441" NumberOfCells="800">
<Points>
<DataArray  type="Float64"  NumberOfComponents="3"  format="ascii">0 0 0  0.05 0 0  0.1 0 0  0.15 0 0  0.2 0 0  0.25 0 0  0.3 0 0  0.35 0 0  0.4 0 0  0.45 0 0  0.5 0 0  0.55 0 0  0.6 0 0  0.65 0 0  0.7 0 0  0.75 0 0  0.8 0 0  0.85 0 0  0.9 0 0  0.95 0 0  1 0 0  0 0.05 0  0.05 0.05 0  0.1 0.05 0  0.15 0.05 0  0.2 0.05 0  0.25 0.05 0  0.3 0.05 0  0.35 0.05 0  0.4 0.05 0  0.45 0.05 0  0.5 0.05 0  0.55 0.05 0  0.6 0.05 0  0.65 0.05 0  0.7 0.05 0  0.75 0.05 0  0.8 0.05 0  0.85 0.05 0  0.9 0.05 0  0.95 0.05 0  1 0.05 0  0 0.1 0  0.05 0.1 0  0.1 0.1 0  0.15 0.1 0  0.2 0.1 0  0.25 0.1 0  0.3 0.1 0  0.35 0.1 0  0.4 0.1 0  0.45 0.1 0  0.5 0.1 0  0.55 0.1 0  0.6 0.1 0  0.65 0.1 0  0.7 0.1 0  0.75 0.1 0  0.8 0.1 0  0.85 0.1 0  0.9 0.1 0  0.95 0.1 0  1 0.1 0  0 0.15 0  0.05 0.15 0  0.1 0.15 0  0.15 0.15 0  0.2 0.15 0  0.25 0.15 0  0.3 0.15 0  0.35 0.15 0  0.4 0.15 0  0.45 0.15 0  0.5 0.15 0  0.55 0.15 0  0.6 0.15 0  0.65 0.15 0  0.7 0.15 0  0.75 0.15 0  0.8 0.15 0  0.85 0.15 0  0.9 0.15 0  0.95 0.15 0  1 0.15 0  0 0.2 0  0.05 0.2 0  0.1 0.2 0  0.15 0.2 0  0.2 0.2 0  0.25 0.2 0  0.3 0.2 0  0.35 0.2 0  0.4 0.2 0  0.45 0.2 0  0.5 0.2 0  0.55 0.2 0  0.6 0.2 0  0.65 0.2 0  0.7 0.2 0  0.75 0.2 0  0.8 0.2 0  0.85 0.2 0  0.9 0.2 0  0.95 0.2 0  1 0.2 0  0 0.25 0  0.05 0.25 0  0.1 0.25 0  0.15 0.25 0  0.2 0.25 0  0.25 0.25 0  0.3 0.25 0  0.35 0.25 0  0.4 0.25 0  0.45 0.25 0  0.5 0.25 0  0.55 0.25 0  0.6 0.25 0  0.65 0.25 0  0.7 0.25 0  0.75 0.25 0  0.8 0.25 0  0.85 0.25 0  0.9 0.25 0  0.95 0.25 0  1 0.25 0  0 0.3 0  0.05 0.3 0  0.1 0.3 0  0.15 0.3 0  0.2 0.3 0  0.25 0.3 0  0.3 0.3 0  0.35 0.3 0  0.4 0.3 0  0.45 0.3 0  0.5 0.3 0  0.55 0.3 0  0.6 0.3 0  0.65 0.3 0  0.7 0.3 0  0.75 0.3 0  0.8 0.3 0  0.85 0.3 0  0.9 0.3 0  0.95 0.3 0  1 0.3 0  0 0.35 0  0.05 0.35 0  0.1 0.35 0  0.15 0.35 0  0.2 0.35 0  0.25 0.35 0  0.3 0.35 0  0.35 0.35 0  0.4 0.35 0  0.45 0.35 0  0.5 0.35 0  0.55 0.35 0  0.6 0.35 0  0.65 0.35 0  0.7 0.35 0  0.75 0.35 0  0.8 0.35 0  0.85 0.35 0  0.9 0.35 0  0.95 0.35 0  1 0.35 0  0 0.4 0  0.05 0.4 0  0.1 0.4 0  0.15 0.4 0  0.2 0.4 0  0.25 0.4 0  0.3 0.4 0  0.35 0.4 0  0.4 0.4 0  0.45 0.4 0  0.5 0.4 0  0.55 0.4 0  0.6 0.4 0  0.65 0.4 0  0.7 0.4 0  0.75 0.4 0  0.8 0.4 0  0.85 0.4 0  0.9 0.4 0  0.95 0.4 0  1 0.4 0  0 0.45 0  0.05 0.45 0  0.1 0.45 0  0.15 0.45 0  0.2 0.45 0  0.25 0.45 0  0.3 0.45 0  0.35 0.45 0  0.4 0.45 0  0.45 0.45 0  0.5 0.45 0  0.55 0.45 0  0.6 0.45 0  0.65 0.45 0  0.7 0.45 0  0.75 0.45 0  0.8 0.45 0  0.85 0.45 0  0.9 0.45 0  0.95 0.45 0  1 0.45 0  0 0.5 0  0.05 0.5 0  0.1 0.5 0  0.15 0.5 0  0.2 0.5 0  0.25 0.5 0  0.3 0.5 0  0.35 0.5 0  0.4 0.5 0  0.45 0.5 0  0.5 0.5 0  0.55 0.5 0  0.6 0.5 0  0.65 0.5 0  0.7 0.5 0  0.75 0.5 0  0.8 0.5 0  0.85 0.5 0  0.9 0.5 0  0.95 0.5 0  1 0.5 0  0 0.55 0  0.05 0.55 0  0.1 0.55 0  0.15 0.55 0  0.2 0.55 0  0.25 0.55 0  0.3 0.55 0  0.35 0.55 0  0.4 0.55 0  0.45 0.55 0  0.5 0.55 0  0.55 0.55 0  0.6 0.55 0  0.65 0.55 0  0.7 0.55 0  0.75 0.55 0  0.8 0.55 0  0.85 0.55 0  0.9 0.55 0  0.95 0.55 0  1 0.55 0  0 0.6 0  0.05 0.6 0  0.1 0.6 0  0.15 0.6 0  0.2 0.6 0  0.25 0.6 0  0.3 0.6 0  0.35 0.6 0  0.4 0.6 0  0.45 0.6 0  0.5 0.6 0  0.55 0.6 0  0.6 0.6 0  0.65 0.6 0  0.7 0.6 0  0.75 0.6 0  0.8 0.6 0  0.85 0.6 0  0.9 0.6 0  0.95 0.6 0  1 0.6 0  0 0.65 0  0.05 0.65 0  0.1 0.65 0  0.15 0.65 0  0.2 0.65 0  0.25 0.65 0  0.3 0.65 0  0.35 0.65 0  0.4 0.65 0  0.45 0.65 0  0.5 0.65 0  0.55 0.65 0  0.6 0.65 0  0.65 0.65 0  0.7 0.65 0  0.75 0.65 0  0.8 0.65 0  0.85 0.65 0  0.9 0.65 0  0.95 0.65 0  1 0.65 0  0 0.7 0  0.05 0.7 0  0.1 0.7 0  0.15 0.7 0  0.2 0.7 0  0.25 0.7 0  0.3 0.7 0  0.35 0.7 0  0.4 0.7 0  0.45 0.7 0  0.5 0.7 0  0.55 0.7 0  0.6 0.7 0  0.65 0.7 0  0.7 0.7 0  0.75 0.7 0  0.8 0.7 0  0.85 0.7 0  0.9 0.7 0  0.95 0.7 0  1 0.7 0  0 0.75 0  0.05 0.75 0  0.1 0.75 0  0.15 0.75 0  0.2 0.75 0  0.25 0.75 0  0.3 0.75 0  0.35 0.75 0  0.4 0.75 0  0.45 0.75 0  0.5 0.75 0  0.55 0.75 0  0.6 0.75 0  0.65 0.75 0  0.7 0.75 0  0.75 0.75 0  0.8 0.75 0  0.85 0.75 0  0.9 0.75 0  0.95 0.75 0  1 0.75 0  0 0.8 0  0.05 0.8 0  0.1 0.8 0  0.15 0.8 0  0.2 0.8 0  0.25 0.8 0  0.3 0.8 0  0.35 0.8 0  0.4 0.8 0  0.45 0.8 0  0.5 0.8 0  0.55 0.8 0  0.6 0.8 0  0.65 0.8 0  0.7 0.8 0  0.75 0.8 0  0.8 0.8 0  0.85 0.8 0  0.9 0.8 0  0.95 0.8 0  1 0.8 0  0 0.85 0  0.05 0.85 0  0.1 0.85 0  0.15 0.85 0  0.2 0.85 0  0.25 0.85 0  0.3 0.85 0  0.35 0.85 0  0.4 0.85 0  0.45 0.85 0  0.5 0.85 0  0.55 0.85 0  0.6 0.85 0  0.65 0.85 0  0.7 0.85 0  0.75 0.85 0  0.8 0.85 0  0.85 0.85 0  0.9 0.85 0  0.95 0.85 0  1 0.85 0  0 0.9 0  0.05 0.9 0  0.1 0.9 0  0.15 0.9 0  0.2 0.9 0  0.25 0.9 0  0.3 0.9 0  0.35 0.9 0  0.4 0.9 0  0.45 0.9 0  0.5 0.9 0  0.55 0.9 0  0.6 0.9 0  0.65 0.9 0  0.7 0.9 0  0.75 0.9 0  0.8 0.9 0  0.85 0.9 0  0.9 0.9 0  0.95 0.9 0  1 0.9 0  0 0.95 0  0.05 0.95 0  0.1 0.95 0  0.15 0.95 0  0.2 0.95 0  0.25 0.95 0  0.3 0.95 0  0.35 0.95 0  0.4 0.95 0  0.45 0.95 0  0.5 0.95 0  0.55 0.95 0  0.6 0.95 0  0.65 0.95 0  0.7 0.95 0  0.75 0.95 0  0.8 0.95 0  0.85 0.95 0  0.9 0.95 0  0.95 0.95 0  1 0.95 0  0 1 0  0.05 1 0  0.1 1 0  0.15 1 0  0.2 1 0  0.25 1 0  0.3 1 0  0.35 1 0  0.4 1 0  0.45 1 0  0.5 1 0  0.55 1 0  0.6 1 0  0.65 1 0  0.7 1 0  0.75 1 0  0.8 1 0  0.85 1 0  0.9 1 0  0.95 1 0  1 1 0  </DataArray>
</Points>
<Cells>
[...]
<PointData  Scalars="f_8047"> 
<DataArray  type="Float64"  Name="f_8047"  format="ascii">1.0359089754438799e+01  9.5301838222747559e+00  1.0082451151839329e+01  9.5108362096848733e+00  9.8168990310980480e+00  9.6283139900562809e+00  9.5501927607971204e+00  9.7876733567618732e+00  9.3376469272276701e+00  9.9105508182586561e+00  9.2349545349444497e+00  9.9448297348565990e+00  9.2719754712408324e+00  9.8788682466187563e+00  9.4411364617266997e+00  9.7454505619103351e+00  9.7014584971546025e+00  9.6140933140840925e+00  9.9996358644982930e+00  9.5837041439913495e+00  1.0333018824821252e+01  9.5301838227650801e+00  1.0506672069912469e+01  1.1233535292428639e+01  1.1565359398258661e+01  1.1938936501426653e+01  1.2149723503106395e+01  1.2320515984843029e+01  1.2497258412542619e+01  1.2511617117040524e+01  1.2665648232013861e+01  1.2565808231144628e+01  1.2671761780534723e+01  1.2500447682932970e+01  1.2513548800933288e+01  1.2302021778195313e+01  1.2170751842231361e+01  1.1919580960696651e+01  1.1584520818767889e+01  1.1222038263092941e+01  1.0527755538944266e+01  9.5837041435023966e+00  1.0082451150951705e+01  1.1233535292260754e+01  1.2281167841896975e+01  1.3080324517785785e+01  1.3726584418579463e+01  1.4214512536209599e+01  1.4588726969765517e+01  1.4873456214422911e+01  1.5050384248314709e+01  1.5179261426067702e+01  1.5195522721887388e+01  1.5180552618421050e+01  1.5048879466012894e+01  1.4876932601361222e+01  1.4586308264747318e+01  1.4219104051487735e+01  1.3724167989743659e+01  1.3084280136607218e+01  1.2277469936424104e+01  1.1222038263262188e+01  9.9996358653848745e+00  9.5108362108919717e+00  1.1565359398465151e+01  1.3080324517826552e+01  1.4252693356317177e+01  1.5178413026358077e+01  1.5900058218378083e+01  1.6454476206666641e+01  1.6866320251257179e+01  1.7146647009636204e+01  1.7315284544730943e+01  1.7366356038308236e+01  1.7315785485926185e+01  1.7146923259067194e+01  1.6867700711409483e+01  1.6455028068186877e+01  1.5901990524849580e+01  1.5179289462338888e+01  1.4255180355902016e+01  1.3084280136566145e+01  1.1584520818560943e+01  9.6140933128777011e+00  9.8168990296893064e+00  1.1938936501182122e+01  1.3726584418537957e+01  1.5178413026349663e+01  1.6343040195156981e+01  1.7263355105294753e+01  1.7974854809757328e+01  1.8503983706803702e+01  1.8868770191879243e+01  1.9083577084272800e+01  1.9153694029298492e+01  1.9083958047599896e+01  1.8869390056537483e+01  1.8505042452615804e+01  1.7975965980776820e+01  1.7264824967283598e+01  1.6344276520109332e+01  1.5179289462347350e+01  1.3724167989785276e+01  1.1919580960941557e+01  9.7014584985630172e+00  9.6283139915309484e+00  1.2149723503362070e+01  1.4214512536254080e+01  1.5900058218385583e+01  1.7263355105296309e+01  1.8349204193787088e+01  1.9193353612015294e+01  1.9823352324674854e+01  2.0259409390393884e+01  2.0515801290975020e+01  2.0600345643360399e+01  2.0516151243935788e+01  2.0260068652275514e+01  1.9824324088785886e+01  1.9194524412635868e+01  1.8350576019398488e+01  1.7264824967282042e+01  1.5901990524842086e+01  1.4219104051443255e+01  1.2170751841975704e+01  9.7454505604355877e+00  9.5501927593988594e+00  1.2320515984600323e+01  1.4588726969723412e+01  1.6454476206659294e+01  1.7974854809756096e+01  1.9193353612015027e+01  2.0145046172760569e+01  2.0857665668431661e+01  2.1352145439759774e+01  2.1643166400029006e+01  2.1739302644820569e+01  2.1643477669282063e+01  2.1352746073438709e+01  2.0858526123107779e+01  2.0146099219479620e+01  1.9194524412636120e+01  1.7975965980778042e+01  1.6455028068194192e+01  1.4586308264789292e+01  1.2302021778437688e+01  9.4411364631254262e+00  9.7876733579487816e+00  1.2497258412748835e+01  1.4873456214458741e+01  1.6866320251263396e+01  1.8503983706804792e+01  1.9823352324675032e+01  2.0857665668431700e+01  2.1634230143954330e+01  2.2174099448912497e+01  2.2492172183026589e+01  2.2597297905447174e+01  2.2492425318908897e+01  2.2174589871153096e+01  2.1634928765748239e+01  2.0858526123107733e+01  1.9824324088785694e+01  1.8505042452614713e+01  1.6867700711403323e+01  1.4876932601325622e+01  1.2513548800727703e+01  9.8788682454310432e+00  9.3376469263666610e+00  1.2511617116890676e+01  1.5050384248288625e+01  1.7146647009631657e+01  1.8868770191878443e+01  2.0259409390393738e+01  2.1352145439759749e+01  2.2174099448912486e+01  2.2746285219291629e+01  2.3083667300830740e+01  2.3195194923836375e+01  2.3083845547757626e+01  2.2746630580062867e+01  2.2174589871153106e+01  2.1352746073438730e+01  2.0260068652275631e+01  1.8869390056538244e+01  1.7146923259071645e+01  1.5048879466038629e+01  1.2500447683081939e+01  9.2719754721029020e+00  9.9105508187106679e+00  1.2665648232092861e+01  1.5179261426081496e+01  1.7315284544733345e+01  1.9083577084273209e+01  2.0515801290975087e+01  2.1643166400029006e+01  2.2492172183026589e+01  2.3083667300830736e+01  2.3432599249657581e+01  2.3547943631115533e+01  2.3432691242686449e+01  2.3083845547757633e+01  2.2492425318908918e+01  2.1643477669282056e+01  2.0516151243935706e+01  1.9083958047599488e+01  1.7315785485923875e+01  1.5180552618407630e+01  1.2671761780456743e+01  9.9448297344033723e+00  9.2349545349450679e+00  1.2565808231144079e+01  1.5195522721887164e+01  1.7366356038308176e+01  1.9153694029298467e+01  2.0600345643360388e+01  2.1739302644820555e+01  2.2597297905447174e+01  2.3195194923836379e+01  2.3547943631115540e+01  2.3664527750917632e+01  2.3547943631115537e+01  2.3195194923836397e+01  2.2597297905447189e+01  2.1739302644820580e+01  2.0600345643360409e+01  1.9153694029298471e+01  1.7366356038308179e+01  1.5195522721887171e+01  1.2565808231144089e+01  9.2349545349451052e+00  9.9448297344034202e+00  1.2671761780456745e+01  1.5180552618407622e+01  1.7315785485923868e+01  1.9083958047599488e+01  2.0516151243935692e+01  2.1643477669282035e+01  2.2492425318908886e+01  2.3083845547757633e+01  2.3432691242686452e+01  2.3547943631115540e+01  2.3432599249657599e+01  2.3083667300830761e+01  2.2492172183026618e+01  2.1643166400029028e+01  2.0515801290975105e+01  1.9083577084273220e+01  1.7315284544733341e+01  1.5179261426081490e+01  1.2665648232092847e+01  9.9105508187106341e+00  9.2719754721028504e+00  1.2500447683081926e+01  1.5048879466038629e+01  1.7146923259071642e+01  1.8869390056538240e+01  2.0260068652275628e+01  2.1352746073438716e+01  2.2174589871153088e+01  2.2746630580062856e+01  2.3083845547757626e+01  2.3195194923836393e+01  2.3083667300830761e+01  2.2746285219291661e+01  2.2174099448912521e+01  2.1352145439759770e+01  2.0259409390393753e+01  1.8868770191878447e+01  1.7146647009631646e+01  1.5050384248288614e+01  1.2511617116890676e+01  9.3376469263666841e+00  9.8788682454310948e+00  1.2513548800727712e+01  1.4876932601325629e+01  1.6867700711403320e+01  1.8505042452614717e+01  1.9824324088785691e+01  2.0858526123107726e+01  2.1634928765748231e+01  2.2174589871153085e+01  2.2492425318908893e+01  2.2597297905447181e+01  2.2492172183026607e+01  2.2174099448912525e+01  2.1634230143954351e+01  2.0857665668431704e+01  1.9823352324675028e+01  1.8503983706804789e+01  1.6866320251263378e+01  1.4873456214458733e+01  1.2497258412748831e+01  9.7876733579487762e+00  9.4411364631253889e+00  1.2302021778437680e+01  1.4586308264789286e+01  1.6455028068194181e+01  1.7975965980778032e+01  1.9194524412636110e+01  2.0146099219479602e+01  2.0858526123107762e+01  2.1352746073438688e+01  2.1643477669282042e+01  2.1739302644820565e+01  2.1643166400029006e+01  2.1352145439759791e+01  2.0857665668431665e+01  2.0145046172760569e+01  1.9193353612015020e+01  1.7974854809756081e+01  1.6454476206659276e+01  1.4588726969723400e+01  1.2320515984600314e+01  9.5501927593988452e+00  9.7454505604355965e+00  1.2170751841975699e+01  1.4219104051443239e+01  1.5901990524842066e+01  1.7264824967282028e+01  1.8350576019398478e+01  1.9194524412635843e+01  1.9824324088785854e+01  2.0260068652275482e+01  2.0516151243935763e+01  2.0600345643360388e+01  2.0515801290975023e+01  2.0259409390393891e+01  1.9823352324674850e+01  1.9193353612015283e+01  1.8349204193787074e+01  1.7263355105296291e+01  1.5900058218385571e+01  1.4214512536254071e+01  1.2149723503362070e+01  9.6283139915309768e+00  9.7014584985630279e+00  1.1919580960941550e+01  1.3724167989785267e+01  1.5179289462347342e+01  1.6344276520109322e+01  1.7264824967283587e+01  1.7975965980776802e+01  1.8505042452615776e+01  1.8869390056537462e+01  1.9083958047599879e+01  1.9153694029298475e+01  1.9083577084272790e+01  1.8868770191879232e+01  1.8503983706803695e+01  1.7974854809757314e+01  1.7263355105294739e+01  1.6343040195156970e+01  1.5178413026349656e+01  1.3726584418537952e+01  1.1938936501182107e+01  9.8168990296892726e+00  9.6140933128776709e+00  1.1584520818560932e+01  1.3084280136566145e+01  1.4255180355902020e+01  1.5179289462338886e+01  1.5901990524849571e+01  1.6455028068186866e+01  1.6867700711409466e+01  1.7146923259067190e+01  1.7315785485926174e+01  1.7366356038308222e+01  1.7315284544730925e+01  1.7146647009636187e+01  1.6866320251257161e+01  1.6454476206666619e+01  1.5900058218378065e+01  1.5178413026358065e+01  1.4252693356317174e+01  1.3080324517826543e+01  1.1565359398465155e+01  9.5108362108920108e+00  9.9996358653849136e+00  1.1222038263262188e+01  1.2277469936424106e+01  1.3084280136607218e+01  1.3724167989743661e+01  1.4219104051487735e+01  1.4586308264747316e+01  1.4876932601361208e+01  1.5048879466012886e+01  1.5180552618421045e+01  1.5195522721887379e+01  1.5179261426067699e+01  1.5050384248314694e+01  1.4873456214422909e+01  1.4588726969765499e+01  1.4214512536209588e+01  1.3726584418579458e+01  1.3080324517785781e+01  1.2281167841896973e+01  1.1233535292260747e+01  1.0082451150951668e+01  9.5837041435023593e+00  1.0527755538944241e+01  1.1222038263092958e+01  1.1584520818767876e+01  1.1919580960696667e+01  1.2170751842231352e+01  1.2302021778195332e+01  1.2513548800933284e+01  1.2500447682932981e+01  1.2671761780534725e+01  1.2565808231144628e+01  1.2665648232013867e+01  1.2511617117040510e+01  1.2497258412542632e+01  1.2320515984843007e+01  1.2149723503106411e+01  1.1938936501426630e+01  1.1565359398258675e+01  1.1233535292428632e+01  1.0506672069912494e+01  9.5301838227651121e+00  1.0333018824821300e+01  9.5837041439912731e+00  9.9996358644983871e+00  9.6140933140839895e+00  9.7014584971547055e+00  9.7454505619102463e+00  9.4411364617267779e+00  9.8788682466186994e+00  9.2719754712408768e+00  9.9448297348565831e+00  9.2349545349444444e+00  9.9105508182586881e+00  9.3376469272276061e+00  9.7876733567619567e+00  9.5501927607970245e+00  9.6283139900563715e+00  9.8168990310979574e+00  9.5108362096849586e+00  1.0082451151839253e+01  9.5301838222748110e+00  1.0359089754438765e+01  </DataArray> 
</PointData> 
</Piece>
</UnstructuredGrid>
</VTKFile>