<?xml version="1.0"?>
<VTKFile type="UnstructuredGrid"  version="0.1"  >
<UnstructuredGrid>
<Piece  NumberOfPoints="441" NumberOfCells="800">
<Points>
<DataArray  type="Float64"  NumberOfComponents="3"  format="ascii">0 0 0  0.05 0 0  0.1 0 0  0.15 0 0  0.2 0 0  0.25 0 0  0.3 0 0  0.35 0 0  0.4 0 0  0.45 0 0  0.5 0 0  0.55 0 0  0.6 0 0  0.65 0 0  0.7 0 0  0.75 0 0  0.8 0 0  0.85 0 0  0.9 0 0  0.95 0 0  1 0 0  0 0.05 0  0.05 0.05 0  0.1 0.05 0  0.15 0.05 0  0.2 0.05 0  0.25 0.05 0  0.3 0.05 0  0.35 0.05 0  0.4 0.05 0  0.45 0.05 0  0.5 0.05 0  0.55 0.05 0  0.6 0.05 0  0.65 0.05 0  0.7 0.05 0  0.75 0.05 0  0.8 0.05 0  0.85 0.05 0  0.9 0.05 0  0.95 0.05 0  1 0.05 0  0 0.1 0  0.05 0.1 0  0.1 0.1 0  0.15 0.1 0  0.2 0.1 0  0.25 0.1 0  0.3 0.1 0  0.35 0.1 0  0.4 0.1 0  0.45 0.1 0  0.5 0.1 0  0.55 0.1 0  0.6 0.1 0  0.65 0.1 0  0.7 0.1 0  0.75 0.1 0  0.8 0.1 0  0.85 0.1 0  0.9 0.1 0  0.95 0.1 0  1 0.1 0  0 0.15 0  0.05 0.15 0  0.1 0.15 0  0.15 0.15 0  0.2 0.15 0  0.25 0.15 0  0.3 0.15 0  0.35 0.15 0  0.4 0.15 0  0.45 0.15 0  0.5 0.15 0  0.55 0.15 0  0.6 0.15 0  0.65 0.15 0  0.7 0.15 0  0.75 0.15 0  0.8 0.15 0  0.85 0.15 0  0.9 0.15 0  0.95 0.15 0  1 0.15 0  0 0.2 0  0.05 0.2 0  0.1 0.2 0  0.15 0.2 0  0.2 0.2 0  0.25 0.2 0  0.3 0.2 0  0.35 0.2 0  0.4 0.2 0  0.45 0.2 0  0.5 0.2 0  0.55 0.2 0  0.6 0.2 0  0.65 0.2 0  0.7 0.2 0  0.75 0.2 0  0.8 0.2 0  0.85 0.2 0  0.9 0.2 0  0.95 0.2 0  1 0.2 0  0 0.25 0  0.05 0.25 0  0.1 0.25 0  0.15 0.25 0  0.2 0.25 0  0.25 0.25 0  0.3 0.25 0  0.35 0.25 0  0.4 0.25 0  0.45 0.25 0  0.5 0.25 0  0.55 0.25 0  0.6 0.25 0  0.65 0.25 0  0.7 0.25 0  0.75 0.25 0  0.8 0.25 0  0.85 0.25 0  0.9 0.25 0  0.95 0.25 0  1 0.25 0  0 0.3 0  0.05 0.3 0  0.1 0.3 0  0.15 0.3 0  0.2 0.3 0  0.25 0.3 0  0.3 0.3 0  0.35 0.3 0  0.4 0.3 0  0.45 0.3 0  0.5 0.3 0  0.55 0.3 0  0.6 0.3 0  0.65 0.3 0  0.7 0.3 0  0.75 0.3 0  0.8 0.3 0  0.85 0.3 0  0.9 0.3 0  0.95 0.3 0  1 0.3 0  0 0.35 0  0.05 0.35 0  0.1 0.35 0  0.15 0.35 0  0.2 0.35 0  0.25 0.35 0  0.3 0.35 0  0.35 0.35 0  0.4 0.35 0  0.45 0.35 0  0.5 0.35 0  0.55 0.35 0  0.6 0.35 0  0.65 0.35 0  0.7 0.35 0  0.75 0.35 0  0.8 0.35 0  0.85 0.35 0  0.9 0.35 0  0.95 0.35 0  1 0.35 0  0 0.4 0  0.05 0.4 0  0.1 0.4 0  0.15 0.4 0  0.2 0.4 0  0.25 0.4 0  0.3 0.4 0  0.35 0.4 0  0.4 0.4 0  0.45 0.4 0  0.5 0.4 0  0.55 0.4 0  0.6 0.4 0  0.65 0.4 0  0.7 0.4 0  0.75 0.4 0  0.8 0.4 0  0.85 0.4 0  0.9 0.4 0  0.95 0.4 0  1 0.4 0  0 0.45 0  0.05 0.45 0  0.1 0.45 0  0.15 0.45 0  0.2 0.45 0  0.25 0.45 0  0.3 0.45 0  0.35 0.45 0  0.4 0.45 0  0.45 0.45 0  0.5 0.45 0  0.55 0.45 0  0.6 0.45 0  0.65 0.45 0  0.7 0.45 0  0.75 0.45 0  0.8 0.45 0  0.85 0.45 0  0.9 0.45 0  0.95 0.45 0  1 0.45 0  0 0.5 0  0.05 0.5 0  0.1 0.5 0  0.15 0.5 0  0.2 0.5 0  0.25 0.5 0  0.3 0.5 0  0.35 0.5 0  0.4 0.5 0  0.45 0.5 0  0.5 0.5 0  0.55 0.5 0  0.6 0.5 0  0.65 0.5 0  0.7 0.5 0  0.75 0.5 0  0.8 0.5 0  0.85 0.5 0  0.9 0.5 0  0.95 0.5 0  1 0.5 0  0 0.55 0  0.05 0.55 0  0.1 0.55 0  0.15 0.55 0  0.2 0.55 0  0.25 0.55 0  0.3 0.55 0  0.35 0.55 0  0.4 0.55 0  0.45 0.55 0  0.5 0.55 0  0.55 0.55 0  0.6 0.55 0  0.65 0.55 0  0.7 0.55 0  0.75 0.55 0  0.8 0.55 0  0.85 0.55 0  0.9 0.55 0  0.95 0.55 0  1 0.55 0  0 0.6 0  0.05 0.6 0  0.1 0.6 0  0.15 0.6 0  0.2 0.6 0  0.25 0.6 0  0.3 0.6 0  0.35 0.6 0  0.4 0.6 0  0.45 0.6 0  0.5 0.6 0  0.55 0.6 0  0.6 0.6 0  0.65 0.6 0  0.7 0.6 0  0.75 0.6 0  0.8 0.6 0  0.85 0.6 0  0.9 0.6 0  0.95 0.6 0  1 0.6 0  0 0.65 0  0.05 0.65 0  0.1 0.65 0  0.15 0.65 0  0.2 0.65 0  0.25 0.65 0  0.3 0.65 0  0.35 0.65 0  0.4 0.65 0  0.45 0.65 0  0.5 0.65 0  0.55 0.65 0  0.6 0.65 0  0.65 0.65 0  0.7 0.65 0  0.75 0.65 0  0.8 0.65 0  0.85 0.65 0  0.9 0.65 0  0.95 0.65 0  1 0.65 0  0 0.7 0  0.05 0.7 0  0.1 0.7 0  0.15 0.7 0  0.2 0.7 0  0.25 0.7 0  0.3 0.7 0  0.35 0.7 0  0.4 0.7 0  0.45 0.7 0  0.5 0.7 0  0.55 0.7 0  0.6 0.7 0  0.65 0.7 0  0.7 0.7 0  0.75 0.7 0  0.8 0.7 0  0.85 0.7 0  0.9 0.7 0  0.95 0.7 0  1 0.7 0  0 0.75 0  0.05 0.75 0  0.1 0.75 0  0.15 0.75 0  0.2 0.75 0  0.25 0.75 0  0.3 0.75 0  0.35 0.75 0  0.4 0.75 0  0.45 0.75 0  0.5 0.75 0  0.55 0.75 0  0.6 0.75 0  0.65 0.75 0  0.7 0.75 0  0.75 0.75 0  0.8 0.75 0  0.85 0.75 0  0.9 0.75 0  0.95 0.75 0  1 0.75 0  0 0.8 0  0.05 0.8 0  0.1 0.8 0  0.15 0.8 0  0.2 0.8 0  0.25 0.8 0  0.3 0.8 0  0.35 0.8 0  0.4 0.8 0  0.45 0.8 0  0.5 0.8 0  0.55 0.8 0  0.6 0.8 0  0.65 0.8 0  0.7 0.8 0  0.75 0.8 0  0.8 0.8 0  0.85 0.8 0  0.9 0.8 0  0.95 0.8 0  1 0.8 0  0 0.85 0  0.05 0.85 0  0.1 0.85 0  0.15 0.85 0  0.2 0.85 0  0.25 0.85 0  0.3 0.85 0  0.35 0.85 0  0.4 0.85 0  0.45 0.85 0  0.5 0.85 0  0.55 0.85 0  0.6 0.85 0  0.65 0.85 0  0.7 0.85 0  0.75 0.85 0  0.8 0.85 0  0.85 0.85 0  0.9 0.85 0  0.95 0.85 0  1 0.85 0  0 0.9 0  0.05 0.9 0  0.1 0.9 0  0.15 0.9 0  0.2 0.9 0  0.25 0.9 0  0.3 0.9 0  0.35 0.9 0  0.4 0.9 0  0.45 0.9 0  0.5 0.9 0  0.55 0.9 0  0.6 0.9 0  0.65 0.9 0  0.7 0.9 0  0.75 0.9 0  0.8 0.9 0  0.85 0.9 0  0.9 0.9 0  0.95 0.9 0  1 0.9 0  0 0.95 0  0.05 0.95 0  0.1 0.95 0  0.15 0.95 0  0.2 0.95 0  0.25 0.95 0  0.3 0.95 0  0.35 0.95 0  0.4 0.95 0  0.45 0.95 0  0.5 0.95 0  0.55 0.95 0  0.6 0.95 0  0.65 0.95 0  0.7 0.95 0  0.75 0.95 0  0.8 0.95 0  0.85 0.95 0  0.9 0.95 0  0.95 0.95 0  1 0.95 0  0 1 0  0.05 1 0  0.1 1 0  0.15 1 0  0.2 1 0  0.25 1 0  0.3 1 0  0.35 1 0  0.4 1 0  0.45 1 0  0.5 1 0  0.55 1 0  0.6 1 0  0.65 1 0  0.7 1 0  0.75 1 0  0.8 1 0  0.85 1 0  0.9 1 0  0.95 1 0  1 1 0  </DataArray>
</Points>
<Cells>
[...]
<PointData  Scalars="f_6847"> 
<DataArray  type="Float64"  Name="f_6847"  format="ascii">1.3628046575375436e+01  5.2577773339338627e+00  1.0809184597466837e+01  5.0414420378359868e+00  8.1007497975071647e+00  6.2035498108212712e+00  5.3872096256280164e+00  7.7911211806746410e+00  3.2303228018712247e+00  9.0173131208516395e+00  2.1931588425548543e+00  9.3591209800475639e+00  2.5762661289733222e+00  8.7004670469552572e+00  4.3011582039255920e+00  7.3715901200274532e+00  6.9513303323503441e+00  6.0710887054122873e+00  9.9849147337297719e+00  5.7913675135827019e+00  1.3368842218632670e+01  5.2577772466102521e+00  1.5172575431217110e+01  2.2587682463808434e+01  2.6027218007228036e+01  2.9881991649513488e+01  3.2093936314260262e+01  3.3886123982961507e+01  3.5731233701213419e+01  3.5917221133314477e+01  3.7499723844316605e+01  3.6499770607255506e+01  3.7559450815973911e+01  3.5803596092917310e+01  3.5890228731382592e+01  3.3697692942105306e+01  3.2298754364808531e+01  2.9684212859861240e+01  2.6213396160293794e+01  2.2469213388186866e+01  1.5380195208659309e+01  5.7913676006554269e+00  1.0809184755546305e+01  2.2587682493708201e+01  3.3342995557623340e+01  4.1599564605135917e+01  4.8308386709980930e+01  5.3406869483504821e+01  5.7335279106395504e+01  6.0333954017242860e+01  6.2211287725086365e+01  6.3568418696252522e+01  6.3750584947187157e+01  6.3579099524340840e+01  6.2192044160683913e+01  6.0362517175355144e+01  5.7303645188346891e+01  5.3444117161604424e+01  4.8275492695929842e+01  4.1630642869330636e+01  3.3299360198433064e+01  2.2469213358046936e+01  9.9849145758454476e+00  5.0414418228607101e+00  2.6027217970453314e+01  4.1599564597875947e+01  5.3723372199753967e+01  6.3349941205366449e+01  7.0895680149836224e+01  7.6720805972620511e+01  8.1065321989586977e+01  8.4033341472379107e+01  8.5820150648013723e+01  8.6363200251165708e+01  8.5822344979910056e+01  8.4030660170990132e+01  8.1071326216938090e+01  7.6716725459051190e+01  7.0904181939386561e+01  6.3347598088164183e+01  5.3737798409769262e+01  4.1630642876644849e+01  2.6213396197147574e+01  6.0710889202493394e+00  8.1007500483933139e+00  2.9881991693062254e+01  4.8308386717371995e+01  6.3349941206864479e+01  7.5479515494198196e+01  8.5113777350059237e+01  9.2596878543218324e+01  9.8184133769567651e+01  1.0204828582723242e+02  1.0432776123462165e+02  1.0507197070327982e+02  1.0432849315140709e+02  1.0204851570990381e+02  9.8186217968757958e+01  9.2597516984936021e+01  8.5116762266715298e+01  7.5479888672388341e+01  6.3347598086656895e+01  4.8275492688518320e+01  2.9684212816247328e+01  6.9513300815368533e+00  6.2035495481964738e+00  3.2093936268726708e+01  5.3406869475580969e+01  7.0895680148499437e+01  8.5113777349782382e+01  9.6494357020331492e+01  1.0538177794665943e+02  1.1204035978754816e+02  1.1666318563473138e+02  1.1938649808175529e+02  1.2028446895151721e+02  1.1938695747143318e+02  1.1666388386817466e+02  1.1204169820935125e+02  1.0538318281025538e+02  9.6496594597339495e+01  8.5116762266992183e+01  7.0904181940721827e+01  5.3444117169526805e+01  3.2298754410337118e+01  7.3715903826551115e+00  5.3872098746395123e+00  3.3886124026183801e+01  5.7335279113892518e+01  7.6720805973928066e+01  9.2596878543437413e+01  1.0538177794670575e+02  1.1541121259042221e+02  1.2294965405789688e+02  1.2819608909984129e+02  1.3128977726140698e+02  1.3231187554531940e+02  1.3129014452634200e+02  1.2819677557396486e+02  1.2295070605675106e+02  1.1541247209220299e+02  1.0538318281020922e+02  9.2597516984718183e+01  7.6716725457749277e+01  5.7303645180872444e+01  3.3697692898942215e+01  4.3011579548371968e+00  7.7911209693069452e+00  3.5731233664489530e+01  6.0333954010861348e+01  8.1065321988479255e+01  9.8184133769373773e+01  1.1204035978751587e+02  1.2294965405788983e+02  1.3117082990337065e+02  1.3690297336492873e+02  1.4028670222914968e+02  1.4140543203193386e+02  1.4028699103344616e+02  1.3690353431860831e+02  1.3117165565754306e+02  1.2295070605675789e+02  1.1204169820938273e+02  9.8186217968948824e+01  8.1071326218033818e+01  6.0362517181692958e+01  3.5890228767993804e+01  8.7004672584669169e+00  3.2303229551964026e+00  3.5917221159998078e+01  6.2211287729729840e+01  8.4033341473187292e+01  1.0204828582737278e+02  1.1666318563475603e+02  1.2819608909984527e+02  1.3690297336492961e+02  1.4298171292288509e+02  1.4657297998697527e+02  1.4776081078829759e+02  1.4657317984899132e+02  1.4298210250969564e+02  1.3690353431860746e+02  1.2819677557396096e+02  1.1666388386815065e+02  1.0204851570976699e+02  8.4030660170197677e+01  6.2192044156099399e+01  3.5803596066387215e+01  2.5762659754511592e+00  9.0173130403660533e+00  3.7499723830248577e+01  6.3568418693793639e+01  8.5820150647583930e+01  1.0432776123454640e+02  1.1938649808174209e+02  1.3128977726140457e+02  1.4028670222914926e+02  1.4657297998697507e+02  1.5028873025400014e+02  1.5151801104162763e+02  1.5028883257551382e+02  1.4657317984899146e+02  1.4028699103344664e+02  1.3129014452634414e+02  1.1938695747144519e+02  1.0432849315147767e+02  8.5822344980320992e+01  6.3579099526730097e+01  3.7559450829861660e+01  9.3591210607642470e+00  2.1931588424333954e+00  3.6499770607350115e+01  6.3750584947223544e+01  8.6363200251175456e+01  1.0507197070328202e+02  1.2028446895151762e+02  1.3231187554531940e+02  1.4140543203193383e+02  1.4776081078829759e+02  1.5151801104162760e+02  1.5276107284984528e+02  1.5151801104162763e+02  1.4776081078829770e+02  1.4140543203193397e+02  1.3231187554531954e+02  1.2028446895151762e+02  1.0507197070328196e+02  8.6363200251175414e+01  6.3750584947223544e+01  3.6499770607350143e+01  2.1931588424334687e+00  9.3591210607643625e+00  3.7559450829861646e+01  6.3579099526730069e+01  8.5822344980320949e+01  1.0432849315147767e+02  1.1938695747144516e+02  1.3129014452634399e+02  1.4028699103344644e+02  1.4657317984899143e+02  1.5028883257551377e+02  1.5151801104162766e+02  1.5028873025400028e+02  1.4657297998697518e+02  1.4028670222914940e+02  1.3128977726140471e+02  1.1938649808174218e+02  1.0432776123454641e+02  8.5820150647583915e+01  6.3568418693793639e+01  3.7499723830248591e+01  9.0173130403660338e+00  2.5762659754510220e+00  3.5803596066387165e+01  6.2192044156099378e+01  8.4030660170197635e+01  1.0204851570976699e+02  1.1666388386815066e+02  1.2819677557396085e+02  1.3690353431860731e+02  1.4298210250969552e+02  1.4657317984899126e+02  1.4776081078829768e+02  1.4657297998697530e+02  1.4298171292288518e+02  1.3690297336492972e+02  1.2819608909984538e+02  1.1666318563475602e+02  1.0204828582737274e+02  8.4033341473187264e+01  6.2211287729729833e+01  3.5917221159998093e+01  3.2303229551963542e+00  8.7004672584670626e+00  3.5890228767993818e+01  6.0362517181692994e+01  8.1071326218033789e+01  9.8186217968948853e+01  1.1204169820938273e+02  1.2295070605675787e+02  1.3117165565754300e+02  1.3690353431860822e+02  1.4028699103344616e+02  1.4140543203193391e+02  1.4028670222914977e+02  1.3690297336492878e+02  1.3117082990337070e+02  1.2294965405788989e+02  1.1204035978751585e+02  9.8184133769373702e+01  8.1065321988479212e+01  6.0333954010861341e+01  3.5731233664489558e+01  7.7911209693070509e+00  4.3011579548370156e+00  3.3697692898942151e+01  5.7303645180872422e+01  7.6716725457749220e+01  9.2597516984718197e+01  1.0538318281020926e+02  1.1541247209220296e+02  1.2295070605675096e+02  1.2819677557396474e+02  1.3129014452634189e+02  1.3231187554531937e+02  1.3128977726140701e+02  1.2819608909984134e+02  1.2294965405789691e+02  1.1541121259042224e+02  1.0538177794670572e+02  9.2596878543437370e+01  7.6720805973928037e+01  5.7335279113892490e+01  3.3886124026183779e+01  5.3872098746393577e+00  7.3715903826553202e+00  3.2298754410337118e+01  5.3444117169526777e+01  7.0904181940721770e+01  8.5116762266992140e+01  9.6496594597339438e+01  1.0538318281025526e+02  1.1204169820935108e+02  1.1666388386817448e+02  1.1938695747143304e+02  1.2028446895151708e+02  1.1938649808175524e+02  1.1666318563473142e+02  1.1204035978754813e+02  1.0538177794665943e+02  9.6494357020331449e+01  8.5113777349782325e+01  7.0895680148499409e+01  5.3406869475580947e+01  3.2093936268726758e+01  6.2035495481966736e+00  6.9513300815366419e+00  2.9684212816247253e+01  4.8275492688518284e+01  6.3347598086656845e+01  7.5479888672388313e+01  8.5116762266715241e+01  9.2597516984935922e+01  9.8186217968757802e+01  1.0204851570990367e+02  1.0432849315140695e+02  1.0507197070327969e+02  1.0432776123462159e+02  1.0204828582723238e+02  9.8184133769567580e+01  9.2596878543218253e+01  8.5113777350059195e+01  7.5479515494198139e+01  6.3349941206864472e+01  4.8308386717371981e+01  2.9881991693062229e+01  8.1007500483930954e+00  6.0710889202495517e+00  2.6213396197147599e+01  4.1630642876644863e+01  5.3737798409769269e+01  6.3347598088164176e+01  7.0904181939386532e+01  7.6716725459051148e+01  8.1071326216938004e+01  8.4030660170990075e+01  8.5822344979910014e+01  8.6363200251165651e+01  8.5820150648013637e+01  8.4033341472379064e+01  8.1065321989586920e+01  7.6720805972620454e+01  7.0895680149836167e+01  6.3349941205366399e+01  5.3723372199753967e+01  4.1599564597875947e+01  2.6027217970453368e+01  5.0414418228609241e+00  9.9849145758452504e+00  2.2469213358046897e+01  3.3299360198433057e+01  4.1630642869330636e+01  4.8275492695929842e+01  5.3444117161604396e+01  5.7303645188346870e+01  6.0362517175355059e+01  6.2192044160683835e+01  6.3579099524340783e+01  6.3750584947187114e+01  6.3568418696252472e+01  6.2211287725086301e+01  6.0333954017242817e+01  5.7335279106395433e+01  5.3406869483504757e+01  4.8308386709980894e+01  4.1599564605135896e+01  3.3342995557623333e+01  2.2587682493708186e+01  1.0809184755546111e+01  5.7913676006555903e+00  1.5380195208659371e+01  2.2469213388186866e+01  2.6213396160293851e+01  2.9684212859861290e+01  3.2298754364808566e+01  3.3697692942105348e+01  3.5890228731382585e+01  3.5803596092917338e+01  3.7559450815973911e+01  3.6499770607255527e+01  3.7499723844316613e+01  3.5917221133314463e+01  3.5731233701213434e+01  3.3886123982961479e+01  3.2093936314260290e+01  2.9881991649513463e+01  2.6027218007228072e+01  2.2587682463808434e+01  1.5172575431217181e+01  5.2577772466103951e+00  1.3368842218632544e+01  5.7913675135828369e+00  9.9849147337296245e+00  6.0710887054124258e+00  6.9513303323502349e+00  7.3715901200274914e+00  4.3011582039256435e+00  8.7004670469551186e+00  2.5762661289734479e+00  9.3591209800474857e+00  2.1931588425548929e+00  9.0173131208516395e+00  3.2303228018711763e+00  7.7911211806747405e+00  5.3872096256278930e+00  6.2035498108214044e+00  8.1007497975070439e+00  5.0414420378360969e+00  1.0809184597466725e+01  5.2577773339339604e+00  1.3628046575375333e+01  </DataArray> 
</PointData> 
</Piece>
</UnstructuredGrid>
</VTKFile>